<?xml version="1.0"?>
<VTKFile type="UnstructuredGrid" version="0.1" byte_order="LittleEndian" header_type="UInt32" compressor="vtkZLibDataCompressor">
  <UnstructuredGrid>
    <Piece NumberOfPoints="5233" NumberOfCells="10216">
      <PointData>
        <DataArray type="Float64" Name="E(Ï)" format="ascii" RangeMin="0.80924098736" RangeMax="1.766584069">
          1.5018612068 1.4777726129 1.4592400627 1.4440879615 1.4311457155 1.4197747488
          1.4095229031 1.4001242537 1.3913795582 1.3831759688 1.3753875315 1.3679351285
          1.3607651354 1.3538368678 1.3471171645 1.3405901701 1.3342308286 1.3280318071
          1.321983673 1.3160823971 1.3103285139 1.3047143462 1.2992160867 1.2938049268
          1.2884377274 1.2830806625 1.2777132697 1.2723485203 1.2670195587 1.2617628781
          1.2565444018 1.2512918323 1.2459552887 1.2405230801 1.235033578 1.2295058322
          1.2239621185 1.2183717144 1.2127318607 1.2070044507 1.2011960311 1.1952749112
          1.1892571293 1.1831351565 1.1769667068 1.1707827496 1.1646986628 1.1586257878
          1.1523235637 1.1456860234 1.1387712067 1.1318680429 1.125080268 1.1186584351
          1.1128635098 1.1065139956 1.0957994199 1.07426008 1.0476668786 1.0297551024
          1.0224101001 1.020166115 1.020421584 1.0224448131 1.0251556655 1.028931262
          1.033503787 1.0390485877 1.0451457439 1.0517885568 1.0587303841 1.0658758751
          1.0732462462 1.081646575 1.0913739215 1.1019085605 1.1129824396 1.1248465013
          1.1377899013 1.1518436206 1.1669498309 1.183075921 1.2003122078 1.2187928877
          1.2387095351 1.2605077348 1.2845629579 1.3112512783 1.3410385043 1.3745198251
          1.4122365315 1.4548756601 1.5026221499 1.555323846 1.6116487271 1.6683036216
          1.7191802973 1.7586800124 1.766584069 1.7547824052 1.7508181791 1.7185865812
          1.6507097991 1.5757171605 1.50027601 1.4302716295 1.3681000393 1.3141054197
          1.2675226027 1.2274658561 1.1927692116 1.1625352845 1.1358769901 1.1121883861
          1.0911797301 1.0725180663 1.0554240522 1.039141631 1.0234206105 1.0083110007
          0.99423216115 0.98123270586 0.96858456806 0.9557892971 0.94412191592 0.93758476107
          0.93050115438 0.91825120866 0.91136504825 0.90756933036 0.89960502318 0.89032419526
          0.88280987317 0.87608101131 0.86965049636 0.86336634646 0.85721363698 0.85128353615
          0.84576958404 0.8405167548 0.83560558098 0.83095220479 0.82685269439 0.82396154695
          0.82115624387 0.81876695952 0.81693332578 0.81553697872 0.81433853713 0.81299561296
          0.81134764226 0.81017907609 0.80937325939 0.80924098736 0.80954444222 0.80994423421
          0.8104764169 0.81033104013 1.2338920962 1.3418087029 1.2595425234 1.2509565797
          1.2515001269 1.2521017828 1.2531572651 1.2548582489 1.2571255115 1.2598494755
          1.2629530096 1.2663800928 1.2700820725 1.2740117352 1.2781217417 1.2823843999
          1.2867935567 1.2913492832 1.296049875 1.3008991465 1.3059039847 1.3110830553
          1.3164498247 1.322011269 1.327772039 1.3337317761 1.3398836786 1.3462416784
          1.3528153984 1.3596339547 1.3667316951 1.3741537746 1.3819707345 1.3902973389
          1.3992387122 1.4089766626 1.4197506182 1.4319628476 1.4461281023 1.4630862344
          1.4841023334 1.5254248081 1.2883455022 1.2880836373 1.2883955559 1.2880466017
          1.2879171627 1.287894664 1.2886025896 1.2878124444 1.2886025896 1.2877054154
          1.2879176811 1.2882926716 1.2885078379 1.2887125593 1.2887027739 1.2886710397
          1.2886337153 1.2886143755 1.2886071282 1.2886040597 1.288603269 1.2886027778
          1.2886027848 1.2886026448 1.2886026505 1.2886027149 1.2886025896 1.2886028986
          1.2886030143 1.2886039917 1.2886072736 1.2886110177 1.2886550638 1.2886699837
          1.2887546871 1.2889612499 1.2891113251 1.2893989816 1.2891958427 1.2891367791
          1.2892446961 1.2893587444 1.2886025896 1.2893306595 1.2891055468 1.2890501981
          1.2888249427 1.2888567069 1.2885860652 1.2882798872 1.2210903937 1.2117439302
          0.82434043826 1.2525725703 1.090536992 1.489680808 1.469406472 1.2554880639
          1.2229366952 1.6706303585 1.2448806891 0.81243683387 1.4267915011 1.4160025506
          0.8127737096 1.233957795 1.7272746087 1.4061904865 1.3971228153 1.7177630922
          1.2060303035 1.2765181638 1.265881013 0.84349940096 1.2872166202 0.88656142945
          1.2979217685 1.3609405521 1.3089011981 1.1855874971 1.320409367 1.740343848
          1.3452241592 1.3325070105 1.4053838695 1.1189769042 1.2925541381 1.3586678845
          1.3886381257 1.3730243977 1.0851172536 1.3145813464 1.2502350561 1.4527129455
          1.1883325702 1.124984994 1.1641068619 1.1382323127 1.1517494122 1.1450779479
          1.1161320965 1.3392913914 1.1056817658 1.2620485857 1.1133050527 1.0257980885
          1.0419509279 1.3109771463 1.0265415604 1.3387841834 1.0944226393 1.0621425163
          1.1695189673 1.1406365695 1.1761449326 1.0770505268 1.1943266195 1.303357027
          1.3706328439 1.438831486 1.5327778394 1.269340198 1.326385778 1.3518451907
          1.3806451915 1.6079338641 1.2818767804 1.0370656239 1.1700643303 1.2394390037
          1.2606748283 1.127913783 1.048440608 1.1822463172 1.2173677518 1.2407831613
          1.5817816566 1.4440152201 1.0651807931 1.069491012 1.5146566121 1.042347577
          1.1545121021 1.0251437717 1.0326409873 1.1315102113 1.2284551964 1.7159695736
          1.6781662444 0.81294534848 1.7343092076 1.1984796754 1.0985223033 1.1427366002
          0.98622065128 0.82713661647 1.4402468065 0.8140666021 0.81870817344 1.3718272239
          1.3575935852 1.3047128078 0.81720605051 0.82205559763 0.83394196254 1.3262234652
          1.3150811473 1.0451874929 1.3794514031 1.350892267 1.338160269 1.0137360237
          1.0796960787 0.86659422205 0.87967849837 0.93298206876 0.85440489649 0.82022725391
          0.83032450268 0.95063948413 0.97293703864 1.0544036477 0.9177730408 0.90238686591
          1.2605526317 0.81228469744 1.2572115824 1.2537639092 1.2695304758 1.2626701452
          1.2859061848 1.2773904879 1.3098046735 1.2950184807 1.3444214555 1.3205531253
          1.3645589392 1.2903879725 1.2997898659 1.2733626093 1.2815757619 1.259737272
          1.265950839 1.2530190076 1.255181117 1.3292866356 1.2518280655 0.81236479295
          0.81275052112 0.91119633059 0.89396191723 0.94327687046 0.92345300499 1.1193449256
          0.9601913126 1.3122691952 1.1690320275 1.0550588326 1.4765502652 1.3657145503
          1.2711728862 1.0299170633 1.1580850973 1.5417245504 1.2316750526 1.4158081712
          1.0289922584 1.0620525271 0.8730544998 0.9996317695 1.3875411553 1.3961798704
          0.86033513361 1.4055185658 1.4157674312 0.84879307502 0.83849829041 1.3320960702
          1.4974664332 1.4558081102 1.4743843238 1.2002359398 1.2853285455 1.427171208
          0.81552363534 1.6314839081 1.4865386608 1.202724122 1.1049463529 1.0291957085
          1.0779637491 1.6377766286 1.6842536698 1.0367520663 1.228055595 1.3248641284
          1.525509951 0.81708922888 1.2226091363 1.2600736282 1.4115253467 1.0352391906
          1.2916405856 1.2810536059 1.1794048154 1.6847888308 1.0628242756 1.4469308385
          1.3633620761 1.1032239104 1.2334955353 1.2115372769 1.1329347231 1.1957833009
          1.1045160013 1.3132697453 1.2651695469 1.4212173878 1.2872200317 1.2525849802
          1.2853443611 1.0125884054 1.2546081391 0.95146746747 1.2989274149 1.4012553348
          0.85519090074 0.82035668696 1.3488356207 1.3037280756 1.4108219645 1.3553626295
          1.3842606596 0.90233114055 0.86096113207 0.9106375081 1.0274854489 1.2170963041
          1.070079619 1.3723478034 0.97331794019 1.1381629775 1.3691690352 1.4212193632
          1.3086949463 1.0942376835 1.5187502671 1.4474050223 1.4328687696 1.4737061714
          1.5835801594 1.5674446435 1.7153431788 1.7093515376 1.4114155896 1.5306573867
          1.2318479204 1.4602508893 1.432549253 0.8332014514 1.1705195742 1.4023294113
          1.3022693414 0.81705616641 1.4215890528 1.7123349172 1.1268485249 0.83651534469
          1.2863615282 0.88025964889 1.2969339201 1.3076994423 1.213245722 1.3189883811
          1.330875623 1.3498188082 1.348943994 1.3564902005 1.3704666165 1.3936750782
          1.1252649048 1.2497204646 1.254973767 1.444863953 1.1392884687 1.145970585
          1.1525721486 1.3789459008 1.1151774915 1.1211720723 1.0422733094 1.2962681386
          1.3370292164 1.3433403304 1.1136069378 1.1641962213 1.1764444282 1.1942964144
          1.377847393 1.3855516176 1.2389225638 1.2443648859 1.1502530847 1.1374507567
          1.1823919793 1.1883929751 1.2732417402 1.2518795195 1.4850182156 1.0591434225
          1.0846609256 1.0858278189 1.0778329365 1.0559680955 1.0499484751 1.0344396609
          1.033620709 1.0446012257 1.7033696868 1.6093433776 1.1619343656 1.3925045435
          0.81890937567 0.82184422 0.82389341721 0.8259165601 1.3765165077 1.3621301268
          1.324715654 0.82802677596 0.83040325483 0.84062911057 1.3191774203 1.3425196307
          1.0967767816 1.1166998994 0.89458591486 0.8872429259 0.96262154379 0.98426146691
          0.99803317688 1.2693661783 1.2577312173 1.2559212278 1.2659284757 1.2811244383
          1.3138373434 1.2942621973 1.2897203009 1.2770316408 1.2730935525 1.262814944
          1.2600575615 1.2548225257 1.2545859197 1.2509047726 1.2409441159 0.81745027416
          0.81804602297 0.93353698262 0.81657629851 0.91853512686 0.9265761064 0.9356228991
          0.94375923691 1.3277933409 1.1884656938 1.218215735 1.2704018085 1.2757064042
          1.158918772 1.1647873599 1.5285947508 1.2510027564 1.0431315732 1.0600043706
          0.8671448124 0.87351684201 0.84467475822 0.84965376082 1.3363990441 1.3304613404
          1.2001492997 1.2058762935 1.3213501928 1.6488028932 1.0403671136 1.6910087056
          1.1161493986 1.0455969528 1.2643898951 1.1711510526 1.3290446978 1.4050232833
          1.3962899841 1.3592653231 1.5213398674 1.4143917224 1.4640018455 1.500093143
          1.4491024945 1.5215249457 1.4181148354 1.6874907009 1.1904019713 1.3350513188
          1.4156598858 0.82296512555 1.4778721577 1.5586132467 1.2331939008 1.6296255748
          1.2383698051 1.4507185016 1.3011104477 1.5215733525 1.0469196199 1.2959088676
          1.2276859455 1.4255405626 1.4855297952 1.380373056 0.82581153611 1.3464200582
          1.2536902978 1.4247932195 0.82747224078 0.89567360199 0.8684020121 0.97272321998
          1.1149547962 1.4824740388 1.6612404578 1.6146314147 1.3423921669 1.6607353476
          1.3675432629 1.2070145112 1.7023778241 1.1138011226 1.1408083816 1.3876241433
          1.427353323 1.2847374805 1.2691016984 1.2589272262 1.3881549266 1.3527381083
          1.3074361611 1.3026193382 0.87470707532 0.88830621848 0.92017390666 1.0428712488
          1.2168803635 1.2224957187 1.0792070277 1.383594411 0.98719454447 1.3730458015
          1.4367889286 1.4737609326 1.5684604407 1.5951716257 1.7010048517 1.3586796277
          1.5142297306 1.4970713097 1.3746395508 1.4064574014 0.8224092735 1.135008571
          0.84366645329 1.2854856931 1.2906973635 1.3063806353 1.3118108894 1.2435349454
          1.2247613143 1.3173861037 1.3231501878 1.3540083877 1.360683045 1.3978912773
          1.2545623853 1.2596162875 1.4365596369 1.1472611144 1.1537489074 1.1235411342
          1.1292813872 1.3322066556 1.3411986606 1.3475080236 1.1351975878 1.1235235758
          1.1771470267 1.1826592524 1.3820077442 1.3897080388 1.2439246276 1.2492232063
          1.1750802078 1.1612396946 1.1482588883 1.1888004237 1.1943678913 1.3078678572
          1.2851226315 1.263611675 1.0569816018 1.0781924221 1.1008598867 1.1044786386
          1.0956627511 1.0871213293 1.0715656398 1.0648058805 1.0437267456 1.0434323593
          1.0585708256 1.1819058281 0.82915760064 0.83184996803 1.3660275643 0.83456992967
          0.8373308706 0.84026560036 0.84767458881 1.3229475126 1.1358354899 1.1579391853
          0.90342598523 0.91171240613 0.99925398857 1.0111218876 1.026659015 1.2581745441
          1.3175828862 1.3124093269 1.2979765417 1.293427331 1.2889459983 1.2806512737
          1.2766102015 1.2727559747 1.2658712738 1.2628977958 1.2603245503 1.2565730218
          1.256021472 1.2569592088 1.2683271299 0.82384535098 0.8248068273 1.101923761
          0.82031339772 0.82122678006 0.92815661281 0.9356451121 0.94601327889 0.9574542503
          0.96425493674 1.2082085457 1.2374858737 1.2696143914 1.27480323 1.2801953218
          1.1601418822 1.1660297781 1.2698970528 1.3045331891 1.0592207393 1.0763338614
          1.0949942772 0.88144404402 0.85251479033 0.85686686245 0.86229881841 1.3402929789
          1.3343294517 1.328541089 1.2003605568 1.2058006406 1.2115861383 1.0534750815
          1.0489324339 1.6660668789 1.2020423387 1.4263939448 1.3839297541 1.1775206086
          1.6630028701 1.4591798441 1.333342039 1.3392717029 1.3672727118 1.4079486493
          0.83590883668 1.6385284991 1.3925707981 1.5487500696 1.3565739565 1.4172432022
          1.5933575886 1.2507613015 1.5541947013 1.5025491306 1.5121165791 1.2687366722
          1.1256169728 1.4234229198 1.1255675036 1.218844953 1.1428638329 1.0559957513
          1.3915426522 0.83005556572 1.3502832728 1.3441918683 1.2691268825 0.99885388783
          0.91327313238 1.4100480964 1.1556773821 1.3003280933 1.4464642481 1.3994959603
          1.4383242813 1.378660367 1.4528517841 1.2328221587 1.5808469017 1.2384359745
          1.2433106905 1.4843455517 1.4189692835 1.516406952 1.284279 0.83250746412
          0.89031432412 1.6343326008 1.4316804567 1.2667479092 1.3064471359 0.88349807406
          0.89767610486 0.90514510088 1.2222729379 1.2280022213 1.3766464286 1.4721673596
          1.5135928207 1.6110075109 1.6808923211 1.3945957119 1.3716358328 1.4016513231
          0.82898411311 1.2900756328 1.295258483 1.3053073109 1.3106235761 1.2555145118
          1.2367100607 1.3159651012 1.3216469976 1.327434332 1.3582289225 1.3648409992
          1.2593472823 1.2641320669 1.4287527094 1.1492525925 1.1553835395 1.1320709929
          1.1381131426 1.3453625063 1.3517425023 1.145644011 1.1353294869 1.1837542567
          1.3859407211 1.393619357 1.2491572139 1.2546529218 1.1868271951 1.1735569526
          1.1597032109 1.1889085352 1.1952556218 1.3424991061 1.3189857681 1.2966222404
          1.2754489362 1.0599707252 1.074832208 1.0944119349 1.1159938858 1.1157037952
          1.1063817655 1.0975885003 1.0892421936 1.0816404636 1.0555412619 1.0541367308
          1.0746367164 0.83802029957 1.3697339702 1.3630506153 0.8415210415 0.84503344264
          0.84853772609 0.85212518486 0.85623504232 1.1779815086 1.2018903641 0.92190331269
          0.9307849304 1.0152379154 1.0278419364 1.041455756 1.0592104168 1.3213322572
          1.3162211932 1.3111899569 1.3017595629 1.297380317 1.2929145308 1.2883105675
          1.2806412207 1.276335474 1.2724531117 1.2659710005 1.2631932265 1.2607379386
          1.2584802327 1.2572783584 1.2560960001 1.2614368463 0.832507559 0.83021791506
          1.2230324422 0.96301342029 0.82538154719 0.82599013672 0.93913298256 0.94732055487
          0.95676624012 0.96879855079 0.97981880975 0.98769127324 1.2277931086 1.2557309279
          1.2741874469 1.2796765871 1.2850036314 1.1618877404 1.1672260266 1.1726667264
          1.2869964442 1.3202995802 1.3549386209 1.0769063193 1.0943985955 1.1129168289
          1.1336648679 0.86062177609 0.86630466112 0.87095320577 0.87678013324 1.326780375
          1.3382501984 1.3324030447 1.2003543977 1.2064975634 1.2114793855 1.2173915416
          1.0685886502 1.0632129199 1.0587113701 1.4812586364 1.4215492514 1.3754806205
          1.488591004 1.5098909218 1.2460410032 1.2137398733 1.5380856269 1.3798291567
          1.5925297891 1.3995316378 1.1379078746 1.0301587743 1.4339583976 1.5401682533
          1.6363994457 1.681821293 1.6848772871 1.6721573402 1.6166635538 1.4333073284
          0.89979371967 1.3823348715 1.4128895045 1.3431938135 1.2708142672 1.1343565897
          1.410141247 1.3250163966 1.3421757388 0.8383494971 0.84247274289 1.2809166821
          1.2677955462 0.84614769732 1.1819103005 0.89035433449 1.4019771886 1.2307594396
          1.4683206444 1.3869141332 1.6773899688 1.5014271915 1.4818102363 1.3374385527
          1.374682647 1.6409244075 1.3989735473 1.5660125317 1.3540408521 1.573755496
          1.4959252051 1.5001605298 1.4534012136 1.0647735802 1.067273368 1.3942627042
          0.83639597068 1.3479713701 1.404750593 1.2358966788 1.6087022779 0.90486781476
          0.91526114636 0.9208328954 1.2256390668 1.4692260475 1.5049783402 1.6572292503
          1.4265969777 1.2950501344 1.2996900197 1.3046010223 1.3094367973 1.2488951373
          1.2671435477 1.3148543589 1.3200686419 1.3259537133 1.3320605819 1.362363777
          1.3688287325 1.2622027445 1.421442781 1.1505030933 1.1576640135 1.1408041691
          1.1459835853 1.349721823 1.3560410084 1.1568580581 1.1450537599 1.3894956579
          1.3969867625 1.2549957843 1.1983146478 1.1827602085 1.1718164968 1.1930902453
          1.3515344641 1.3287981291 1.3074503351 1.287209079 1.0683714532 1.0746992979
          1.0899095393 1.1096175505 1.1280008018 1.1245806865 1.1179737195 1.1060594017
          1.1003526087 1.0901125538 1.3730567163 1.3665632565 1.3602351815 0.84672779416
          0.85241850461 0.8552428843 0.86112850063 0.86365090757 1.1979119357 1.2208753911
          0.93243438683 0.93885580069 1.0417289094 1.0579194133 1.0757226443 1.3199774413
          1.3149358961 1.3102619081 1.3055282413 1.3012492451 1.2970367121 1.292386813
          1.2862829783 1.2805997478 1.2741774792 1.2623826065 1.2576989734 1.267288939
          0.99588679769 0.83235476041 0.950638583 0.95658028868 0.96978305943 0.97696229487
          0.99164091228 1.0056837875 1.0158818209 1.2463044706 1.2727770987 1.2792178414
          1.2846354135 1.2897528734 1.1643930477 1.1720887427 1.3017214026 1.3334831824
          1.365402815 1.0954014829 1.113921358 1.1319617173 1.1520473131 1.1757928045
          0.87004237738 0.87281542349 0.88155604437 0.88659789191 1.3364620633 1.3305034288
          1.2042893155 1.2151306532 1.0856771955 1.0771777136 1.073909047 1.0679636771
          1.4693990478 1.4561431956 1.5268891031 1.64940136 1.498114376 1.3854821512
          1.3963910763 1.5847107531 1.3575963846 1.438616178 1.3996555562 1.6323959356
          1.4030224016 1.5020552405 0.90527398594 1.4885152373 1.4651986752 1.5553050452
          1.4768076668 1.3788435698 1.1823873974 1.3892275181 1.0785570045 1.347277825
          1.3387208116 1.2144314756 1.2246451406 1.1424821152 1.5953118313 1.1469059767
          1.2613642218 1.242229952 1.0659088178 1.3758334637 1.3258223288 1.6101113378
          1.4342652485 1.3724378722 1.4790809895 1.3823648151 1.6758911319 1.6161312945
          1.4071964748 1.2541810865 0.85598811921 0.85832226183 1.4040250102 1.4895779823
          1.4266830635 1.6597627066 1.4924560999 1.380968855 1.5740917815 1.5510803343
          0.84531052253 1.4274847843 1.3516792999 1.3456025039 0.85105275696 0.92035418868
          0.93742501908 1.2446652776 1.4960427869 1.5262912649 1.4523176059 1.3020294494
          1.3110279415 1.2789377007 1.3213743841 1.3306213816 1.3661966542 1.4151925149
          1.1561804169 1.3542505061 1.3601296767 1.1624045381 1.3924071807 1.2621720453
          1.2695764349 1.2021856417 1.1827097458 1.1926276328 1.3586106425 1.33550334
          1.3140334338 1.2990770772 1.0870775762 1.1141037789 1.1376965818 1.122740298
          1.1057714867 1.3695778191 1.3635314408 0.86645168959 0.87689446844 1.2367075748
          0.95607177477 1.0917008395 1.2797277874 1.3161243461 1.3069658464 1.2987580057
          1.2918088705 1.2859392476 1.2730583163 1.2671040916 1.2615320937 1.2596963787
          1.3183067793 1.1828269675 0.83774848427 0.84169417599 0.97610275705 0.99699788754
          1.0201511098 1.031363886 1.0472508623 1.2628853116 1.2884838714 1.2780702197
          1.2868372034 1.2948010769 1.166692824 1.1744962502 1.3145863547 1.3437583478
          1.373623926 1.4033876079 1.1138881842 1.1344668618 1.1522605611 1.1711028718
          1.1956481161 1.2121615626 0.88774911287 0.89803823722 1.3403611754 1.3345072528
          1.2036866303 1.2247817992 1.2348372223 1.0918815844 1.0820062421 1.4106205139
          1.4728069734 1.4645032437 1.4332429112 1.3327691617 1.3990398496 1.4850621408
          1.4328949607 1.5362893258 1.4714012357 1.4454069812 1.4220256882 1.4869424126
          1.5855564172 1.607801263 1.3661811166 1.2616540968 0.91755995664 1.421144717
          1.327984661 1.4267489665 1.2408334585 1.4604087361 1.5153667732 1.1506864289
          1.3519650152 1.2238572802 1.1925014645 1.3815491687 1.3879147328 1.4058384703
          1.3858736143 1.4805135191 1.3842250897 1.3912769717 1.3552266695 0.94788452597
          0.85170090702 1.243461591 1.2870327665 1.4516221258 1.4597049796 1.6555916262
          1.3754089502 1.3606318922 1.4910237531 1.3945922325 1.5632012202 1.4934699148
          1.1836958309 1.5929678798 1.2736957312 1.2531190577 1.3779099524 1.625621561
          1.3694608413 1.4019936555 1.2529507559 1.6399669149 1.4924886708 1.3071116186
          1.574858935 1.5561615809 0.86418884453 1.4495278642 1.348804538 0.8576414811
          0.9307664704 0.84745149304 1.5129002738 1.5380621718 1.308931937 1.3181952845
          1.3364344212 1.3443735602 1.4100868105 1.1583320593 1.3580077937 1.363653189
          1.1343480133 1.2854464513 1.2937996852 1.2691326892 1.2340426886 1.2126403938
          1.1920895837 1.3624719553 1.0958170091 1.1090213481 1.1724650197 1.1519729089
          1.2337790352 1.371926205 0.86984925426 0.87628249411 1.1075044113 1.3224808786
          1.3133032426 1.2851078109 1.3049082697 1.2975164766 1.2911958905 1.2784348998
          1.2718727608 1.2658747484 1.2607251261 1.2701143598 1.3081312084 1.0432889198
          0.96664666939 0.98827372822 1.0110596714 1.0334666798 1.0553909267 1.0829451009
          1.276111716 1.3022990054 1.2768284733 1.3011964705 1.1677566307 1.1767295651
          1.3260963381 1.3518274741 1.3794529229 1.4062488612 1.4332795038 1.1311138175
          1.1552595514 1.1730962448 1.1906668676 1.2129738596 0.88613924122 0.8995452384
          0.909665942 1.3406643056 1.3316631788 1.2028888143 1.2135665525 1.1324815408
          1.1160478626 1.1031339719 1.0953968642 1.45435624 1.4531691744 1.4456097046
          1.4166298375 1.5436037287 1.4407070303 1.5000472125 1.3555745909 1.4886662618
          1.4168208955 1.4151814467 1.3719858376 1.471956657 1.3627986398 0.97632708738
          1.4367255876 1.442079072 1.4650405719 1.4789683825 1.4551799665 1.2013073127
          1.3364707712 1.3337441764 1.2689202276 1.4282104621 1.4300656208 1.4248877354
          1.4847245567 1.5218705211 0.86481540408 1.2331882166 1.1614004211 0.85872699019
          1.3282384007 1.3108387687 0.94218076795 1.2853578784 1.1854562743 1.4779260499
          1.3862461851 1.193497741 1.4333773959 1.4055522799 1.4039367962 1.4671502181
          1.5634023081 0.93108654024 1.4804126931 1.4829992823 1.4452062125 1.4844721757
          1.1500416405 1.3776747329 1.3834901134 1.4237224645 1.4055348739 1.4642544783
          1.3680691375 1.3577543119 0.95786497295 1.2427372833 1.3063662774 1.3900046099
          1.5038175412 1.584874379 1.2832951161 1.2630715626 1.3796851433 1.6011796126
          1.6486398096 1.396828867 1.2521138553 1.2610233903 1.6382892736 1.6143293123
          1.4771305308 1.5713313831 1.5554866555 1.5389576194 0.87142317023 1.3522423084
          1.5219735061 1.3155821764 1.3248412124 1.3416383931 1.3490830035 1.3610527107
          1.3664859801 1.2926993092 1.284337496 1.2425397729 1.2215901769 1.3891188269
          1.3630579736 1.1133613962 1.1292654254 1.1808529362 1.3735078062 0.87932187919
          0.88790917866 1.3193101688 1.3033339162 1.296590848 1.2904022436 1.2839453269
          1.2771262231 1.2705889463 1.264781247 1.2631024854 1.2719882136 1.2416354386
          0.95139711121 0.99854801581 1.0722762003 1.0977490127 1.0232311906 1.0474965783
          1.1233053246 1.3131957977 1.2763426364 1.3002177496 1.3074678131 1.1690619064
          1.1783247556 1.3360571078 1.3585698991 1.3832644869 1.4075674239 1.4313702094
          1.147821702 1.1740859699 1.1883576759 1.2072162298 1.2293382655 1.2548363518
          0.89637154966 0.90849357629 0.92162265752 1.3451692035 1.3369639756 1.202918344
          1.2130919356 1.2233519555 1.1602879243 1.1414760229 1.1258912826 1.1145225989
          1.1093487428 1.5431702105 1.4578380179 1.3825423991 1.5225413203 1.4102174701
          1.3642931729 0.94495032588 1.2918078679 1.4577131438 1.466164676 1.3333887471
          1.4452361658 1.6164796311 1.4320618283 1.4614196592 1.2837878338 1.5787205278
          1.4717099471 1.4355552095 1.5079583893 1.2762306693 1.1717319232 1.3583019291
          1.2102953275 1.1631230151 1.3594354007 1.3249846215 0.87976685827 1.0094185111
          1.3308820014 1.4495160579 1.0356929496 0.8729043378 1.4487435949 1.420362637
          1.4477318785 1.4216235593 1.4060411951 1.4589267494 1.4156920336 1.4727971374
          1.4394629058 1.4784598184 1.4751097385 1.4764907382 1.4832766289 1.4758883927
          1.4843715975 1.3166612493 0.9568027306 1.469119081 1.4878135499 1.1950350923
          1.3908164216 1.395136187 1.4272708961 1.427604292 1.4922521437 1.373905388
          1.3796684283 1.4390786881 1.4139966714 1.3625328875 0.97022281533 0.98745661316
          1.2424389892 1.3853582862 1.3377317722 1.3130476144 1.2918110888 1.5929897359
          1.3930543838 1.4015814582 1.251672834 1.2605886982 1.2687549096 1.6205147367
          1.5634638052 1.551128271 1.5371344198 1.3544360593 1.506832098 1.5256259286
          1.3221847818 1.3388969138 1.3462119629 1.3527977805 1.3634275319 1.3686278696
          1.2715830705 1.2508240224 1.2306223392 1.3879511015 1.1319964123 1.1479054478
          1.3751191617 1.3696781854 0.88761711417 0.89843245046 1.3090564445 1.3021440739
          1.2957213541 1.2894043192 1.2826994348 1.2758529256 1.2695019316 1.2648610864
          1.2620160874 1.2899258974 1.1429857577 0.86768925524 1.1135255744 1.0617397618
          1.0878421603 1.1387330621 1.3203660932 1.2994729524 1.3064486189 1.3138380345
          1.1789918101 1.1874715893 1.3439123007 1.364027298 1.3856491936 1.4074642985
          1.4285829303 1.1643605037 1.1900639084 1.2147510324 1.2433946499 1.2668494807
          1.2931671539 0.90943631853 0.92004839532 0.93182418038 1.3484830034 1.3413943122
          1.2039368683 1.2132655499 1.2232134902 1.2330089523 1.1894980466 1.1693201445
          1.1513471813 1.1369707159 1.1275343572 1.1250117269 1.4347149975 1.3972856778
          1.3606767776 1.5575485563 1.5929942958 1.3703366348 1.2425366366 1.2912586222
          0.97201088043 1.3785523188 1.443786015 1.4394887979 1.4518876948 1.480969292
          1.3845704025 1.4230039984 1.4765562771 1.3220780067 1.413935713 1.3943002251
          1.3991925659 1.4713738671 1.3281931838 1.2988422107 1.5720472294 1.4654045211
          1.3253199017 1.0762433494 1.4102395735 1.3376405246 1.2836424225 1.2393940746
          1.3889549652 1.4494231323 1.1849506496 1.3656921404 0.88924782351 1.360241674
          1.2058561411 1.4433247757 1.1299230751 1.2191105511 1.1750625985 0.95667955915
          1.5070197384 1.4944982715 1.4600716956 1.6032765527 1.3299465845 1.0485611771
          1.4725328824 1.425446533 1.480626253 1.4659233004 1.4318002093 1.4727949007
          1.4770868534 1.4604338162 1.4763054683 1.386649568 1.3756838572 1.2589298749
          0.98588525443 1.0010388125 1.021539991 1.3615426711 1.3392523389 1.3186555976
          1.3816471104 1.4051686476 1.2516133676 1.2604367943 1.268709935 1.2762992664
          1.5995164517 1.519690618 1.5434323418 1.5321095201 1.3558040838 1.4925569801
          1.5088741871 1.524513075 1.3360559452 1.3432803767 1.3497913128 1.3553833983
          1.365158544 1.2990072216 1.2788596647 1.4308360768 1.4083200997 1.1505070114
          1.1639442768 1.3714049505 0.89765752772 0.90759659276 1.3145659622 1.3076280339
          1.3010869883 1.2947337581 1.2881901956 1.2812420618 1.2742405445 1.2678382345
          1.2620061507 1.2578059153 1.2737914715 1.0624804433 0.88395812547 1.1033967061
          1.1544562757 1.1790756063 1.3201314161 1.3057774768 1.3126032673 1.1965915256
          1.3486026366 1.3681318498 1.3867183783 1.4061845981 1.424925357 1.2050128311
          1.2551157036 1.2772691115 1.2309178151 1.3007927372 0.92079207527 0.93432423298
          0.94515198566 1.3506374495 1.3446612441 1.2142728162 1.2235839908 1.2332020873
          1.1984975836 1.1790081376 1.1621300472 1.1493425052 1.1420016927 1.1419303774
          1.2277809442 1.4547183606 1.4368734192 1.4407283457 1.4738994527 1.4093882129
          1.3185289921 1.467232167 1.3569737735 1.2477212349 1.3978237044 1.4019908413
          1.420800138 1.4723799905 1.4483096504 1.4295989746 1.4180059191 1.5032354742
          1.4698675443 1.1186155419 1.3807436664 1.3117400376 1.2983599909 1.479198827
          0.90556561648 1.0022639993 1.3332420975 1.2519180514 1.1779619927 1.3505510096
          1.2431721325 1.2666109507 1.3622349366 1.3666208989 1.5712630232 1.4017915918
          1.2429976885 1.2910242577 0.98491689081 1.4396726327 1.4519343723 1.477025662
          1.4251929559 1.4289195852 1.4622459716 1.3896519882 1.4497204982 1.3052530294
          1.3258450352 1.5521174717 1.0908179233 1.4003801341 1.3267247499 1.3917939041
          1.4552475819 1.2074882318 0.97221000391 1.1458250719 1.4688739671 1.4362367939
          1.5822099628 1.5843935867 1.3339628325 1.4923508925 1.4813949226 1.4605005698
          1.4691621681 1.4647303504 1.4516912115 1.4654077234 1.3812507356 1.0181081486
          1.0360753094 1.0621159782 1.360400475 1.3414390206 1.3722102156 1.3767597134