# vtk DataFile Version 3.0
vtk output
ASCII
DATASET UNSTRUCTURED_GRID
POINTS 5233 double
9.997500e-01	-3.632897e-05	0.0	9.990000e-01	-1.452538e-04	0.0	9.977600e-01	-3.251112e-04	0.0	9.960200e-01	-5.769984e-04	0.0	9.937800e-01	-9.004365e-04	0.0	9.910500e-01	-1.293364e-03	0.0	9.878400e-01	-1.753610e-03	0.0	9.841300e-01	-2.283177e-03	0.0	9.799500e-01	-2.876826e-03	0.0	9.752800e-01	-3.536324e-03	0.0	9.701500e-01	-4.256269e-03	0.0	9.645400e-01	-5.038225e-03	0.0	9.584700e-01	-5.878077e-03	0.0	9.519400e-01	-6.774429e-03	0.0	9.449600e-01	-7.724467e-03	0.0	9.375400e-01	-8.725349e-03	0.0	9.296900e-01	-9.774221e-03	0.0	9.214000e-01	-1.087086e-02	0.0	9.127000e-01	-1.200973e-02	0.0	9.035800e-01	-1.319056e-02	0.0	8.940600e-01	-1.440916e-02	0.0	8.841500e-01	-1.566269e-02	0.0	8.738500e-01	-1.694956e-02	0.0	8.631800e-01	-1.826569e-02	0.0	8.521600e-01	-1.960709e-02	0.0	8.407700e-01	-2.097463e-02	0.0	8.290500e-01	-2.236196e-02	0.0	8.170100e-01	-2.376642e-02	0.0	8.046400e-01	-2.518764e-02	0.0	7.919700e-01	-2.662063e-02	0.0	7.790100e-01	-2.806277e-02	0.0	7.657800e-01	-2.951034e-02	0.0	7.522800e-01	-3.096181e-02	0.0	7.385200e-01	-3.241453e-02	0.0	7.245300e-01	-3.386377e-02	0.0	7.103200e-01	-3.530689e-02	0.0	6.958900e-01	-3.674225e-02	0.0	6.812700e-01	-3.816515e-02	0.0	6.664700e-01	-3.957289e-02	0.0	6.515000e-01	-4.096270e-02	0.0	6.363800e-01	-4.233084e-02	0.0	6.211300e-01	-4.367359e-02	0.0	6.057600e-01	-4.498807e-02	0.0	5.902800e-01	-4.627133e-02	0.0	5.747100e-01	-4.751951e-02	0.0	5.590600e-01	-4.872956e-02	0.0	5.433600e-01	-4.989684e-02	0.0	5.276100e-01	-5.101898e-02	0.0	5.118400e-01	-5.209138e-02	0.0	4.960500e-01	-5.311154e-02	0.0	4.802700e-01	-5.407492e-02	0.0	4.645100e-01	-5.497836e-02	0.0	4.487800e-01	-5.581860e-02	0.0	4.331100e-01	-5.659142e-02	0.0	4.175000e-01	-5.729417e-02	0.0	4.019700e-01	-5.792324e-02	0.0	3.865400e-01	-5.847521e-02	0.0	3.712300e-01	-5.894684e-02	0.0	3.560400e-01	-5.933562e-02	0.0	3.409900e-01	-5.963848e-02	0.0	3.261100e-01	-5.985254e-02	0.0	3.114000e-01	-5.997565e-02	0.0	2.968700e-01	-6.000550e-02	0.0	2.825500e-01	-5.994005e-02	0.0	2.684500e-01	-5.977766e-02	0.0	2.545700e-01	-5.951658e-02	0.0	2.409400e-01	-5.915586e-02	0.0	2.275700e-01	-5.869457e-02	0.0	2.144700e-01	-5.813197e-02	0.0	2.016600e-01	-5.746811e-02	0.0	1.891400e-01	-5.670228e-02	0.0	1.769300e-01	-5.583514e-02	0.0	1.650400e-01	-5.486709e-02	0.0	1.534900e-01	-5.379978e-02	0.0	1.422900e-01	-5.263443e-02	0.0	1.314400e-01	-5.137134e-02	0.0	1.209500e-01	-5.001187e-02	0.0	1.108500e-01	-4.856067e-02	0.0	1.011300e-01	-4.701715e-02	0.0	9.181000e-02	-4.538527e-02	0.0	8.290000e-02	-4.366791e-02	0.0	7.440000e-02	-4.186608e-02	0.0	6.633000e-02	-3.998514e-02	0.0	5.869000e-02	-3.802636e-02	0.0	5.149000e-02	-3.599338e-02	0.0	4.474000e-02	-3.389028e-02	0.0	3.844000e-02	-3.171811e-02	0.0	3.260000e-02	-2.948109e-02	0.0	2.723000e-02	-2.718420e-02	0.0	2.232000e-02	-2.482329e-02	0.0	1.790000e-02	-2.241365e-02	0.0	1.395000e-02	-1.994492e-02	0.0	1.049000e-02	-1.742916e-02	0.0	7.520000e-03	-1.486756e-02	0.0	5.040000e-03	-1.226032e-02	0.0	3.050000e-03	-9.605565e-03	0.0	1.560000e-03	-6.917518e-03	0.0	5.600000e-04	-4.173160e-03	0.0	6.000000e-05	-1.375330e-03	0.0	0.000000e+00	0.000000e+00	0.0	6.000000e-05	1.375330e-03	0.0	5.600000e-04	4.173160e-03	0.0	1.560000e-03	6.917518e-03	0.0	3.050000e-03	9.605565e-03	0.0	5.040000e-03	1.226032e-02	0.0	7.520000e-03	1.486756e-02	0.0	1.049000e-02	1.742916e-02	0.0	1.395000e-02	1.994492e-02	0.0	1.790000e-02	2.241365e-02	0.0	2.232000e-02	2.482329e-02	0.0	2.723000e-02	2.718420e-02	0.0	3.260000e-02	2.948109e-02	0.0	3.844000e-02	3.171811e-02	0.0	4.474000e-02	3.389028e-02	0.0	5.149000e-02	3.599338e-02	0.0	5.869000e-02	3.802636e-02	0.0	6.633000e-02	3.998514e-02	0.0	7.440000e-02	4.186608e-02	0.0	8.290000e-02	4.366791e-02	0.0	9.181000e-02	4.538527e-02	0.0	1.011300e-01	4.701715e-02	0.0	1.108500e-01	4.856067e-02	0.0	1.209500e-01	5.001187e-02	0.0	1.314400e-01	5.137134e-02	0.0	1.422900e-01	5.263443e-02	0.0	1.534900e-01	5.379978e-02	0.0	1.650400e-01	5.486709e-02	0.0	1.769300e-01	5.583514e-02	0.0	1.891400e-01	5.670228e-02	0.0	2.016600e-01	5.746811e-02	0.0	2.144700e-01	5.813197e-02	0.0	2.275700e-01	5.869457e-02	0.0	2.409400e-01	5.915586e-02	0.0	2.545700e-01	5.951658e-02	0.0	2.684500e-01	5.977766e-02	0.0	2.825500e-01	5.994005e-02	0.0	2.968700e-01	6.000550e-02	0.0	3.114000e-01	5.997565e-02	0.0	3.261100e-01	5.985254e-02	0.0	3.409900e-01	5.963848e-02	0.0	3.560400e-01	5.933562e-02	0.0	3.712300e-01	5.894684e-02	0.0	3.865400e-01	5.847521e-02	0.0	4.019700e-01	5.792324e-02	0.0	4.175000e-01	5.729417e-02	0.0	4.331100e-01	5.659142e-02	0.0	4.487800e-01	5.581860e-02	0.0	4.645100e-01	5.497836e-02	0.0	4.802700e-01	5.407492e-02	0.0	4.960500e-01	5.311154e-02	0.0	5.118400e-01	5.209138e-02	0.0	5.276100e-01	5.101898e-02	0.0	5.433600e-01	4.989684e-02	0.0	5.590600e-01	4.872956e-02	0.0	5.747100e-01	4.751951e-02	0.0	5.902800e-01	4.627133e-02	0.0	6.057600e-01	4.498807e-02	0.0	6.211300e-01	4.367359e-02	0.0	6.363800e-01	4.233084e-02	0.0	6.515000e-01	4.096270e-02	0.0	6.664700e-01	3.957289e-02	0.0	6.812700e-01	3.816515e-02	0.0	6.958900e-01	3.674225e-02	0.0	7.103200e-01	3.530689e-02	0.0	7.245300e-01	3.386377e-02	0.0	7.385200e-01	3.241453e-02	0.0	7.522800e-01	3.096181e-02	0.0	7.657800e-01	2.951034e-02	0.0	7.790100e-01	2.806277e-02	0.0	7.919700e-01	2.662063e-02	0.0	8.046400e-01	2.518764e-02	0.0	8.170100e-01	2.376642e-02	0.0	8.290500e-01	2.236196e-02	0.0	8.407700e-01	2.097463e-02	0.0	8.521600e-01	1.960709e-02	0.0	8.631800e-01	1.826569e-02	0.0	8.738500e-01	1.694956e-02	0.0	8.841500e-01	1.566269e-02	0.0	8.940600e-01	1.440916e-02	0.0	9.035800e-01	1.319056e-02	0.0	9.127000e-01	1.200973e-02	0.0	9.214000e-01	1.087086e-02	0.0	9.296900e-01	9.774221e-03	0.0	9.375400e-01	8.725349e-03	0.0	9.449600e-01	7.724467e-03	0.0	9.519400e-01	6.774429e-03	0.0	9.584700e-01	5.878077e-03	0.0	9.645400e-01	5.038225e-03	0.0	9.701500e-01	4.256269e-03	0.0	9.752800e-01	3.536324e-03	0.0	9.799500e-01	2.876826e-03	0.0	9.841300e-01	2.283177e-03	0.0	9.878400e-01	1.753610e-03	0.0	9.910500e-01	1.293364e-03	0.0	9.937800e-01	9.004365e-04	0.0	9.960200e-01	5.769984e-04	0.0	9.977600e-01	3.251112e-04	0.0	9.990000e-01	1.452538e-04	0.0	9.997500e-01	3.632897e-05	0.0	1.000000e+00	0.000000e+00	0.0	1.984229e+01	2.506660e+00	0.0	1.937166e+01	4.973800e+00	0.0	1.859553e+01	7.362490e+00	0.0	1.752613e+01	9.635070e+00	0.0	1.618034e+01	1.175571e+01	0.0	1.457937e+01	1.369094e+01	0.0	1.274848e+01	1.541027e+01	0.0	1.071654e+01	1.688656e+01	0.0	8.515590e+00	1.809654e+01	0.0	6.180340e+00	1.902113e+01	0.0	3.747630e+00	1.964575e+01	0.0	1.255810e+00	1.996053e+01	0.0	-1.255810e+00	1.996053e+01	0.0	-3.747630e+00	1.964574e+01	0.0	-6.180340e+00	1.902113e+01	0.0	-8.515590e+00	1.809654e+01	0.0	-1.071654e+01	1.688656e+01	0.0	-1.274848e+01	1.541026e+01	0.0	-1.457937e+01	1.369094e+01	0.0	-1.618034e+01	1.175570e+01	0.0	-1.752613e+01	9.635070e+00	0.0	-1.859553e+01	7.362490e+00	0.0	-1.937166e+01	4.973800e+00	0.0	-1.984229e+01	2.506660e+00	0.0	-2.000000e+01	0.000000e+00	0.0	-1.984229e+01	-2.506670e+00	0.0	-1.937166e+01	-4.973800e+00	0.0	-1.859553e+01	-7.362490e+00	0.0	-1.752613e+01	-9.635080e+00	0.0	-1.618034e+01	-1.175571e+01	0.0	-1.457937e+01	-1.369094e+01	0.0	-1.274848e+01	-1.541027e+01	0.0	-1.071653e+01	-1.688656e+01	0.0	-8.515580e+00	-1.809654e+01	0.0	-6.180340e+00	-1.902113e+01	0.0	-3.747620e+00	-1.964575e+01	0.0	-1.255810e+00	-1.996053e+01	0.0	1.255810e+00	-1.996053e+01	0.0	3.747630e+00	-1.964574e+01	0.0	6.180340e+00	-1.902113e+01	0.0	8.515590e+00	-1.809654e+01	0.0	1.071654e+01	-1.688656e+01	0.0	1.274848e+01	-1.541026e+01	0.0	1.457937e+01	-1.369094e+01	0.0	1.618034e+01	-1.175570e+01	0.0	1.752614e+01	-9.635070e+00	0.0	1.859553e+01	-7.362490e+00	0.0	1.937166e+01	-4.973790e+00	0.0	1.984229e+01	-2.506660e+00	0.0	2.000000e+01	0.000000e+00	0.0	6.071847e-02	-4.599300e-02	0.0	6.602584e-01	-5.397924e-02	0.0	4.259462e-01	7.123173e-02	0.0	6.898893e-01	5.084802e-02	0.0	3.793152e-01	-7.273116e-02	0.0	9.994604e-01	-7.202256e-04	0.0	9.985440e-01	-1.312423e-03	0.0	7.737237e-01	-4.090969e-02	0.0	6.898893e-01	-5.084802e-02	0.0	-1.456769e-03	6.464601e-03	0.0	7.467285e-01	-4.428984e-02	0.0	5.836398e-01	6.115854e-02	0.0	9.927702e-01	-3.577733e-03	0.0	9.898650e-01	-4.450375e-03	0.0	5.991925e-01	5.980916e-02	0.0	7.187526e-01	-4.760665e-02	0.0	-1.597618e-03	7.671995e-04	0.0	9.864674e-01	-5.394793e-03	0.0	9.825871e-01	-6.398977e-03	0.0	-1.456774e-03	-6.464600e-03	0.0	6.451948e-01	-5.549610e-02	0.0	8.243215e-01	-3.409983e-02	0.0	7.996157e-01	-3.751255e-02	0.0	3.487901e-01	7.326090e-02	0.0	8.477112e-01	-3.071909e-02	0.0	2.474256e-01	7.182160e-02	0.0	8.697233e-01	-2.738134e-02	0.0	9.916188e-03	2.185203e-02	0.0	8.902508e-01	-2.411717e-02	0.0	7.700293e-02	-5.054436e-02	0.0	9.092206e-01	-2.095307e-02	0.0	-1.944578e-03	-3.190372e-03	0.0	9.421664e-01	-1.502079e-02	0.0	9.265514e-01	-1.791177e-02	0.0	1.789678e-02	-2.766280e-02	0.0	4.259462e-01	-7.123173e-02	0.0	8.588986e-01	-2.904064e-02	0.0	9.560213e-01	-1.230722e-02	0.0	9.782180e-01	-7.479396e-03	0.0	9.680592e-01	-9.783205e-03	0.0	1.582863e-01	-6.490557e-02	0.0	8.999374e-01	-2.252139e-02	0.0	7.603588e-01	-4.260503e-02	0.0	9.971186e-01	-2.046344e-03	0.0	5.991925e-01	-5.980916e-02	0.0	4.416505e-01	-7.055456e-02	0.0	5.365104e-01	-6.487405e-02	0.0	4.732224e-01	-6.895566e-02	0.0	5.048788e-01	-6.705339e-02	0.0	4.890394e-01	-6.804024e-02	0.0	1.249513e-01	-6.028257e-02	0.0	2.780447e-02	-3.325805e-02	0.0	3.947663e-01	-7.232395e-02	0.0	4.619013e-02	-4.112619e-02	0.0	4.103114e-01	-7.182380e-02	0.0	3.188732e-01	-7.337957e-02	0.0	3.487901e-01	-7.326089e-02	0.0	3.347228e-02	-3.593942e-02	0.0	2.896464e-01	-7.308006e-02	0.0	9.345773e-01	-1.644433e-02	0.0	1.468197e-01	-6.346812e-02	0.0	1.946953e-01	-6.854614e-02	0.0	8.578013e-02	-5.268667e-02	0.0	1.045788e-01	-5.669131e-02	0.0	5.679929e-01	-6.245642e-02	0.0	1.700976e-01	-6.623429e-02	0.0	6.146535e-01	-5.841132e-02	0.0	8.801811e-01	-2.573953e-02	0.0	2.262334e-02	-3.049739e-02	0.0	9.951933e-01	-2.788490e-03	0.0	6.656769e-03	-1.887280e-02	0.0	1.789679e-02	2.766280e-02	0.0	9.180944e-01	-1.941524e-02	0.0	9.4932
[...]
POINT_DATA 5233

SCALARS Density double 1
LOOKUP_TABLE default
1.533774e+00	1.502546e+00	1.483326e+00	1.467557e+00	1.454116e+00	1.442482e+00	1.431831e+00	1.422106e+00	1.413033e+00	1.404510e+00	1.396428e+00	1.388712e+00	1.381310e+00	1.374177e+00	1.367282e+00	1.360601e+00	1.354106e+00	1.347774e+00	1.341594e+00	1.335543e+00	1.329619e+00	1.323812e+00	1.318093e+00	1.312472e+00	1.306920e+00	1.301431e+00	1.295991e+00	1.290597e+00	1.285240e+00	1.279919e+00	1.274631e+00	1.269357e+00	1.264057e+00	1.258729e+00	1.253378e+00	1.247993e+00	1.242585e+00	1.237115e+00	1.231590e+00	1.225986e+00	1.220299e+00	1.214513e+00	1.208620e+00	1.202609e+00	1.196481e+00	1.190228e+00	1.183859e+00	1.177400e+00	1.170897e+00	1.164358e+00	1.157612e+00	1.150281e+00	1.142313e+00	1.134970e+00	1.130588e+00	1.130221e+00	1.130292e+00	1.121510e+00	1.094969e+00	1.055410e+00	1.023893e+00	1.011081e+00	1.010986e+00	1.015219e+00	1.019842e+00	1.024173e+00	1.028762e+00	1.033914e+00	1.039599e+00	1.045659e+00	1.052130e+00	1.059255e+00	1.067315e+00	1.076309e+00	1.086035e+00	1.096270e+00	1.107100e+00	1.118763e+00	1.131303e+00	1.144743e+00	1.159200e+00	1.174718e+00	1.191459e+00	1.209536e+00	1.229159e+00	1.250636e+00	1.274213e+00	1.300302e+00	1.329470e+00	1.362090e+00	1.398863e+00	1.440483e+00	1.487064e+00	1.538610e+00	1.593766e+00	1.649988e+00	1.698588e+00	1.738459e+00	1.745852e+00	1.732853e+00	1.724180e+00	1.684377e+00	1.601291e+00	1.524736e+00	1.449045e+00	1.379591e+00	1.319194e+00	1.267758e+00	1.223793e+00	1.186334e+00	1.154097e+00	1.125812e+00	1.100932e+00	1.078751e+00	1.058850e+00	1.040982e+00	1.024662e+00	1.009420e+00	9.950644e-01	9.815025e-01	9.688683e-01	9.573021e-01	9.466486e-01	9.364065e-01	9.262457e-01	9.162982e-01	9.070781e-01	8.985960e-01	8.905266e-01	8.825415e-01	8.747857e-01	8.675295e-01	8.610061e-01	8.551487e-01	8.498457e-01	8.449043e-01	8.401993e-01	8.356809e-01	8.312274e-01	8.268594e-01	8.226291e-01	8.187234e-01	8.152346e-01	8.119915e-01	8.087566e-01	8.054960e-01	8.022964e-01	7.993840e-01	7.967377e-01	7.946319e-01	7.926793e-01	7.909557e-01	7.900639e-01	7.910901e-01	7.924604e-01	7.890548e-01	7.823930e-01	8.873692e-01	1.148106e+00	1.287892e+00	1.285622e+00	1.272844e+00	1.272972e+00	1.274957e+00	1.275596e+00	1.276738e+00	1.278695e+00	1.281173e+00	1.283945e+00	1.287054e+00	1.290439e+00	1.294057e+00	1.297906e+00	1.301974e+00	1.306223e+00	1.310674e+00	1.315288e+00	1.320094e+00	1.325060e+00	1.330213e+00	1.335533e+00	1.341038e+00	1.346733e+00	1.352624e+00	1.358726e+00	1.365057e+00	1.371639e+00	1.378491e+00	1.385656e+00	1.393172e+00	1.401111e+00	1.409562e+00	1.418619e+00	1.428535e+00	1.439303e+00	1.451823e+00	1.466191e+00	1.484276e+00	1.504845e+00	1.499076e+00	1.290954e+00	1.291847e+00	1.291909e+00	1.291737e+00	1.291609e+00	1.291451e+00	1.291263e+00	1.291030e+00	1.290777e+00	1.290603e+00	1.290512e+00	1.290614e+00	1.290860e+00	1.291324e+00	1.291712e+00	1.292030e+00	1.292213e+00	1.292331e+00	1.292409e+00	1.292447e+00	1.292471e+00	1.292483e+00	1.292493e+00	1.292505e+00	1.292515e+00	1.292530e+00	1.292554e+00	1.292585e+00	1.292628e+00	1.292693e+00	1.292766e+00	1.292886e+00	1.293004e+00	1.293206e+00	1.293396e+00	1.293632e+00	1.293885e+00	1.293992e+00	1.294028e+00	1.293899e+00	1.293751e+00	1.293530e+00	1.293325e+00	1.293121e+00	1.292938e+00	1.292721e+00	1.292550e+00	1.292550e+00	1.291601e+00	1.290345e+00	1.219900e+00	1.230812e+00	8.122037e-01	1.274868e+00	1.135008e+00	1.506751e+00	1.491134e+00	1.273497e+00	1.241717e+00	1.661093e+00	1.263011e+00	7.924631e-01	1.447673e+00	1.436782e+00	7.847220e-01	1.252423e+00	1.728435e+00	1.426784e+00	1.417557e+00	1.718215e+00	1.225258e+00	1.294597e+00	1.283981e+00	8.313199e-01	1.305374e+00	8.672362e-01	1.316388e+00	1.345323e+00	1.327713e+00	1.184052e+00	1.339463e+00	1.740060e+00	1.364584e+00	1.351717e+00	1.411491e+00	1.136062e+00	1.310849e+00	1.378236e+00	1.408879e+00	1.392892e+00	1.083015e+00	1.333530e+00	1.268268e+00	1.473840e+00	1.208031e+00	1.141975e+00	1.183533e+00	1.157637e+00	1.170893e+00	1.164500e+00	1.114706e+00	1.342447e+00	1.136848e+00	1.262125e+00	1.134655e+00	1.020042e+00	1.079246e+00	1.312949e+00	1.020327e+00	1.358066e+00	1.092971e+00	1.058697e+00	1.168092e+00	1.139396e+00	1.196011e+00	1.073941e+00	1.213878e+00	1.322010e+00	1.375151e+00	1.459933e+00	1.543243e+00	1.249899e+00	1.345518e+00	1.371299e+00	1.400687e+00	1.599495e+00	1.299963e+00	1.034633e+00	1.189828e+00	1.257720e+00	1.278728e+00	1.126579e+00	1.045714e+00	1.202082e+00	1.236298e+00	1.240108e+00	1.592579e+00	1.451679e+00	1.117073e+00	1.065904e+00	1.550738e+00	1.039879e+00	1.153240e+00	1.016564e+00	1.029944e+00	1.149929e+00	1.247082e+00	1.710962e+00	1.685659e+00	7.938893e-01	1.735440e+00	1.177094e+00	1.075682e+00	1.120534e+00	9.677365e-01	8.156717e-01	1.457911e+00	7.957692e-01	8.024404e-01	1.390363e+00	1.376314e+00	1.324843e+00	7.998894e-01	8.087731e-01	8.228844e-01	1.345757e+00	1.334948e+00	1.022708e+00	1.397929e+00	1.369737e+00	1.357316e+00	9.930297e-01	1.056564e+00	8.504772e-01	8.612098e-01	9.149591e-01	8.406753e-01	8.055009e-01	8.192008e-01	9.347065e-01	9.564428e-01	1.011934e+00	8.975593e-01	8.812665e-01	1.295374e+00	7.954312e-01	1.280738e+00	1.278393e+00	1.291641e+00	1.285551e+00	1.306704e+00	1.298752e+00	1.329814e+00	1.315424e+00	1.363409e+00	1.340262e+00	1.383185e+00	1.310982e+00	1.320054e+00	1.295078e+00	1.302638e+00	1.282988e+00	1.288458e+00	1.277480e+00	1.279142e+00	1.286426e+00	1.277556e+00	7.934109e-01	7.979006e-01	8.892459e-01	8.739347e-01	9.244753e-01	9.061271e-01	1.096844e+00	9.455129e-01	1.294434e+00	1.147148e+00	1.052019e+00	1.465841e+00	1.385419e+00	1.289268e+00	1.040179e+00	1.177209e+00	1.533394e+00	1.211023e+00	1.402540e+00	1.007380e+00	1.039018e+00	8.556601e-01	9.798218e-01	1.405941e+00	1.414466e+00	8.455088e-01	1.423720e+00	1.433770e+00	8.359806e-01	8.269164e-01	1.351437e+00	1.519515e+00	1.473552e+00	1.489024e+00	1.219612e+00	1.286300e+00	1.445075e+00	7.975784e-01	1.641723e+00	1.495848e+00	1.201266e+00	1.103564e+00	1.025299e+00	1.054813e+00	1.634136e+00	1.684132e+00	1.031826e+00	1.246443e+00	1.343471e+00	1.535665e+00	7.986426e-01	1.241123e+00	1.277769e+00	1.430839e+00	1.037414e+00	1.309499e+00	1.298765e+00	1.177604e+00	1.692693e+00	1.059538e+00	1.453610e+00	1.382203e+00	1.101048e+00	1.251726e+00	1.230326e+00	1.150545e+00	1.193815e+00	1.139977e+00	1.331762e+00	1.282928e+00	1.409596e+00	1.268623e+00	1.282533e+00	1.307335e+00	9.928821e-01	1.277150e+00	9.346594e-01	1.320230e+00	1.418524e+00	8.417546e-01	8.019046e-01	1.367908e+00	1.324830e+00	1.427431e+00	1.374180e+00	1.402132e+00	8.822969e-01	8.468782e-01	8.897570e-01	1.006529e+00	1.235766e+00	1.066558e+00	1.357991e+00	9.560742e-01	1.115487e+00	1.387512e+00	1.437348e+00	1.329620e+00	1.091003e+00	1.538244e+00	1.460686e+00	1.448253e+00	1.464971e+00	1.580657e+00	1.578832e+00	1.730355e+00	1.725431e+00	1.416390e+00	1.551588e+00	1.229972e+00	1.477136e+00	1.451483e+00	8.203036e-01	1.189819e+00	1.421587e+00	1.320465e+00	7.845477e-01	1.440682e+00	1.719947e+00	1.143756e+00	8.242323e-01	1.304105e+00	8.630730e-01	1.314944e+00	1.326057e+00	1.211215e+00	1.337554e+00	1.349531e+00	1.368558e+00	1.351029e+00	1.375273e+00	1.389400e+00	1.412902e+00	1.123381e+00	1.267428e+00	1.272609e+00	1.463547e+00	1.157997e+00	1.164977e+00	1.171379e+00	1.382406e+00	1.139681e+00	1.139809e+00	1.066723e+00	1.296275e+00	1.355716e+00	1.362052e+00	1.111920e+00	1.162495e+00	1.195899e+00	1.213572e+00	1.396871e+00	1.404688e+00	1.256951e+00	1.262225e+00	1.148522e+00	1.135520e+00	1.201902e+00	1.207783e+00	1.272389e+00	1.250354e+00	1.493361e+00	1.105136e+00	1.131473e+00	1.082074e+00	1.074017e+00	1.053023e+00	1.047083e+00	1.027101e+00	1.026353e+00	1.041787e+00	1.715678e+00	1.621981e+00	1.139754e+00	1.410071e+00	7.996029e-01	8.040354e-01	8.068651e-01	8.097568e-01	1.394653e+00	1.380720e+00	1.344951e+00	8.130472e-01	8.165479e-01	8.283568e-01	1.339673e+00	1.361856e+00	1.073309e+00	1.093448e+00	8.754408e-01	8.690034e-01	9.449900e-01	9.680508e-01	9.802381e-01	1.292987e+00	1.282805e+00	1.281537e+00	1.290020e+00	1.303448e+00	1.334551e+00	1.315741e+00	1.311467e+00	1.299745e+00	1.296246e+00	1.287280e+00	1.284935e+00	1.281368e+00	1.280626e+00	1.297592e+00	1.202881e+00	7.989198e-01	7.986871e-01	8.701201e-01	7.876183e-01	8.976691e-01	9.063046e-01	9.153903e-01	9.249438e-01	1.311094e+00	1.166859e+00	1.197254e+00	1.288159e+00	1.293449e+00	1.177541e+00	1.183666e+00	1.523497e+00	1.231001e+00	1.021425e+00	1.037538e+00	8.520415e-01	8.574232e-01	8.325554e-01	8.369863e-01	1.356031e+00	1.350395e+00	1.219241e+00	1.224834e+00	1.322346e+00	1.661922e+00	1.036826e+00	1.693611e+00	1.145162e+00	1.039476e+00	1.282379e+00	1.190579e+00	1.347529e+00	1.421822e+00	1.413709e+00	1.378421e+00	1.515096e+00	1.431033e+00	1.474231e+00	1.493163e+00	1.465571e+00	1.525804e+00	1.420747e+00	1.691900e+00	1.187878e+00	1.353533e+00	1.434439e+00	8.023767e-01	1.493024e+00	1.566460e+00	1.251540e+00	1.638901e+00	1.256681e+00	1.454597e+00	1.319109e+00	1.528331e+00	1.058573e+00	1.313712e+00	1.246333e+00	1.444551e+00	1.490939e+00	1.398576e+00	8.070578e-01	1.366240e+00	1.296359e+00	1.439912e+00	8.096849e-01	8.775456e-01	8.535943e-01	9.570894e-01	1.090784e+00	1.485047e+00	1.664622e+00	1.607591e+00	1.325466e+00	1.656385e+00	1.386153e+00	1.204183e+00	1.718262e+00	1.109691e+00	1.158821e+00	1.388882e+00	1.415282e+00	1.307963e+00	1.294164e+00	1.279833e+00	1.406006e+00	1.372214e+00	1.329364e+00	1.324714e+00	8.591931e-01	8.710381e-01	8.993039e-01	1.021573e+00	1.235783e+00	1.241086e+00	1.074870e+00	1.369000e+00	9.680072e-01	1.391591e+00	1.449624e+00	1.464400e+00	1.564627e+00	1.603674e+00	1.707492e+00	1.358848e+00	1.514935e+00	1.502050e+00	1.393318e+00	1.425385e+00	7.971291e-01	1.152066e+00	8.298266e-01	1.303043e+00	1.308360e+00	1.324579e+00	1.330163e+00	1.240446e+00	1.221703e+00	1.335808e+00	1.341624e+00	1.372528e+00	1.379237e+00	1.416803e+00	1.272160e+00	1.277298e+00	1.454773e+00	1.165769e+00	1.172383e+00	1.145052e+00	1.146954e+00	1.331439e+00	1.359697e+00	1.366002e+00	1.132761e+00	1.120861e+00	1.196517e+00	1.202380e+00	1.400788e+00	1.408563e+00	1.261868e+00	1.267040e+00	1.172659e+00	1.158268e+00	1.145028e+00	1.208182e+00	1.213878e+00	1.306359e+00	1.282764e+00	1.260715e+00	1.092057e+00	1.124480e+00	1.141318e+00	1.099883e+00	1.090982e+00	1.082686e+00	1.067634e+00	1.060984e+00	1.036335e+00	1.039965e+00	1.055019e+00	1.159168e+00	8.119660e-01	8.150071e-01	1.384855e+00	8.182673e-01	8.217711e-01	8.255647e-01	8.343208e-01	1.344140e+00	1.111715e+00	1.134517e+00	8.842967e-01	8.916921e-01	9.800193e-01	9.936577e-01	1.007573e+00	1.284917e+00	1.339071e+00	1.334115e+00	1.320271e+00	1.315951e+00	1.311960e+00	1.304144e+00	1.300661e+00	1.297295e+00	1.291432e+00	1.288734e+00	1.286713e+00	1.284654e+00	1.285097e+00	1.282913e+00	1.292937e+00	8.049816e-01	8.060051e-01	1.064763e+00	8.133632e-01	7.769667e-01	9.074950e-01	9.160191e-01	9.255561e-01	9.357010e-01	9.464597e-01	1.186074e+00	1.216209e+00	1.287491e+00	1.292657e+00	1.297800e+00	1.178546e+00	1.184579e+00	1.249652e+00	1.285748e+00	1.036737e+00	1.053469e+00	1.071459e+00	8.650170e-01	8.390964e-01	8.437534e-01	8.484888e-01	1.360458e+00	1.354849e+00	1.349404e+00	1.219486e+00	1.224992e+00	1.230426e+00	1.049593e+00	1.044468e+00	1.666958e+00	1.198437e+00	1.440927e+00	1.401973e+00	1.197122e+00	1.665404e+00	1.476041e+00	1.351712e+00	1.357793e+00	1.364932e+00	1.424244e+00	8.193762e-01	1.639201e+00	1.376614e+00	1.551793e+00	1.376190e+00	1.432443e+00	1.584609e+00	1.303318e+00	1.547082e+00	1.496554e+00	1.519236e+00	1.286945e+00	1.120182e+00	1.423098e+00	1.150835e+00	1.214854e+00	1.160805e+00	1.050327e+00	1.409107e+00	8.111651e-01	1.370255e+00	1.364528e+00	1.294650e+00	9.827878e-01	8.956301e-01	1.428556e+00	1.129567e+00	1.318329e+00	1.459247e+00	1.416538e+00	1.456152e+00	1.397051e+00	1.453389e+00	1.251447e+00	1.584581e+00	1.256914e+00	1.261649e+00	1.485922e+00	1.437361e+00	1.519059e+00	1.307758e+00	8.155412e-01	8.744971e-01	1.628028e+00	1.417946e+00	1.294031e+00	1.329065e+00	8.685230e-01	8.813401e-01	8.880024e-01	1.241130e+00	1.246703e+00	1.395096e+00	1.460285e+00	1.504349e+00	1.615409e+00	1.683028e+00	1.393183e+00	1.389956e+00	1.420182e+00	7.987173e-01	1.307698e+00	1.312914e+00	1.323666e+00	1.329081e+00	1.250686e+00	1.232182e+00	1.334526e+00	1.340175e+00	1.345897e+00	1.376453e+00	1.383126e+00	1.276717e+00	1.282083e+00	1.446636e+00	1.167278e+00	1.173975e+00	1.151874e+00	1.155255e+00	1.363854e+00	1.369984e+00	1.143272e+00	1.130597e+00	1.203466e+00	1.404391e+00	1.412128e+00	1.266893e+00	1.272495e+00	1.183058e+00	1.168845e+00	1.155967e+00	1.208683e+00	1.214798e+00	1.339812e+00	1.315376e+00	1.291900e+00	1.270340e+00	1.083896e+00	1.114733e+00	1.137951e+00	1.148351e+00	1.110623e+00	1.101531e+00	1.092862e+00	1.084797e+00	1.077424e+00	1.060215e+00	1.050404e+00	1.070720e+00	8.220633e-01	1.388586e+00	1.382266e+00	8.254214e-01	8.288476e-01	8.329215e-01	8.369941e-01	8.419477e-01	1.153034e+00	1.178459e+00	9.030544e-01	9.115469e-01	9.946283e-01	1.007830e+00	1.022896e+00	1.038306e+00	1.343367e+00	1.338496e+00	1.333646e+00	1.324430e+00	1.320255e+00	1.316051e+00	1.311808e+00	1.304538e+00	1.300878e+00	1.297476e+00	1.291809e+00	1.289478e+00	1.287096e+00	1.285175e+00	1.284214e+00	1.284241e+00	1.284075e+00	8.151106e-01	8.114913e-01	1.207546e+00	9.201563e-01	8.109952e-01	7.835957e-01	9.196307e-01	9.286851e-01	9.375187e-01	9.478943e-01	9.587021e-01	9.705368e-01	1.204912e+00	1.233500e+00	1.292148e+00	1.297590e+00	1.302551e+00	1.180408e+00	1.185265e+00	1.191747e+00	1.266000e+00	1.300735e+00	1.336937e+00	1.053696e+00	1.070216e+00	1.088822e+00	1.108557e+00	8.468357e-01	8.523440e-01	8.574622e-01	8.625845e-01	1.348469e+00	1.358954e+00	1.353688e+00	1.219820e+00	1.225704e+00	1.230600e+00	1.236314e+00	1.064672e+00	1.059186e+00	1.054158e+00	1.480511e+00	1.435939e+00	1.393537e+00	1.489414e+00	1.510029e+00	1.264092e+00	1.209543e+00	1.538645e+00	1.398101e+00	1.593997e+00	1.396081e+00	1.132833e+00	1.012097e+00	1.419733e+00	1.531782e+00	1.632725e+00	1.692856e+00	1.693412e+00	1.680727e+00	1.615867e+00	1.450703e+00	8.857974e-01	1.400461e+00	1.431013e+00	1.361633e+00	1.288746e+00	1.158764e+00	1.425445e+00	1.347287e+00	1.362869e+00	8.204939e-01	8.255173e-01	1.288906e+00	1.292403e+00	8.299918e-01	1.200985e+00	8.772613e-01	1.418421e+00	1.225834e+00	1.477298e+00	1.404643e+00	1.687044e+00	1.510214e+00	1.496485e+00	1.355722e+00	1.371079e+00	1.639295e+00	1.382559e+00	1.566947e+00	1.373835e+00	1.564824e+00	1.492049e+00	1.501986e+00	1.451939e+00	1.066037e+00	1.064788e+00	1.411350e+00	8.039954e-01	1.368270e+00	1.422894e+00	1.254327e+00	1.600899e+00	8.908352e-01	9.004196e-01	9.060422e-01	1.244211e+00	1.456770e+00	1.494592e+00	1.655080e+00	1.424524e+00	1.312724e+00	1.317251e+00	1.322805e+00	1.328007e+00	1.242866e+00	1.261571e+00	1.333651e+00	1.338895e+00	1.344456e+00	1.350643e+00	1.380298e+00	1.386826e+00	1.279482e+00	1.439017e+00	1.168231e+00	1.175080e+00	1.159057e+00	1.163694e+00	1.368115e+00	1.373930e+00	1.153576e+00	1.140132e+00	1.407703e+00	1.415198e+00	1.272524e+00	1.193767e+00	1.178649e+00	1.169067e+00	1.212470e+00	1.347197e+00	1.323650e+00	1.300950e+00	1.281010e+00	1.082034e+00	1.104231e+00	1.129255e+00	1.147575e+00	1.155534e+00	1.120827e+00	1.113660e+00	1.102325e+00	1.096274e+00	1.086629e+00	1.391721e+00	1.385620e+00	1.379663e+00	8.325687e-01	8.375035e-01	8.400352e-01	8.458242e-01	8.490870e-01	1.171700e+00	1.197251e+00	9.166713e-01	9.229264e-01	1.021142e+00	1.038518e+00	1.055709e+00	1.342347e+00	1.337398e+00	1.332734e+00	1.328026e+00	1.323613e+00	1.319237e+00	1.314780e+00	1.308788e+00	1.303559e+00	1.297977e+00	1.286095e+00	1.281187e+00	1.297971e+00	9.555787e-01	8.037237e-01	9.344729e-01	9.409640e-01	9.532398e-01	9.601250e-01	9.737874e-01	9.855233e-01	9.984291e-01	1.223742e+00	1.250793e+00	1.297220e+00	1.302120e+00	1.307120e+00	1.182456e+00	1.190102e+00	1.280630e+00	1.314088e+00	1.347415e+00	1.072341e+00	1.089071e+00	1.107327e+00	1.128551e+00	1.149787e+00	8.557369e-01	8.596776e-01	8.670122e-01	8.730996e-01	1.357727e+00	1.352197e+00	1.223419e+00	1.233924e+00	1.081867e+00	1.073734e+00	1.070382e+00	1.063967e+00	1.484478e+00	1.467498e+00	1.525653e+00	1.649507e+00	1.509070e+00	1.403305e+00	1.412997e+00	1.576893e+00	1.376833e+00	1.454799e+00	1.417588e+00	1.630213e+00	1.398523e+00	1.500237e+00	8.917995e-01	1.489347e+00	1.452462e+00	1.546260e+00	1.474403e+00	1.396615e+00	1.199766e+00	1.406565e+00	1.081904e+00	1.365542e+00	1.356856e+00	1.231929e+00	1.220288e+00	1.138109e+00	1.593309e+00	1.166512e+00	1.254989e+00	1.237915e+00	1.046671e+00	1.394084e+00	1.347453e+00	1.605240e+00	1.419692e+00	1.390176e+00	1.482622e+00	1.400128e+00	1.689377e+00	1.613352e+00	1.425032e+00	1.270778e+00	8.384554e-01	8.425415e-01	1.419528e+00	1.492997e+00	1.439519e+00	1.661216e+00	1.501829e+00	1.376148e+00	1.573340e+00	1.550224e+00	8.214155e-01	1.423595e+00	1.371662e+00	1.365895e+00	8.308404e-01	9.065478e-01	9.233835e-01	1.261798e+00	1.485089e+00	1.516902e+00	1.449822e+00	1.319408e+00	1.329436e+00	1.271893e+00	1.340100e+00	1.349236e+00	1.383838e+00	1.432654e+00	1.172703e+00	1.372023e+00	1.377665e+00	1.157834e+00	1.410263e+00	1.278467e+00	1.286313e+00	1.198177e+00	1.179381e+00	1.210413e+00	1.353745e+00	1.330044e+00	1.308486e+00	1.293719e+00	1.108978e+00	1.146617e+00	1.163859e+00	1.118734e+00	1.101791e+00	1.388229e+00	1.382545e+00	8.512034e-01	8.606065e-01	1.214458e+00	9.418103e-01	1.072569e+00	1.300677e+00	1.337877e+00	1.328351e+00	1.319485e+00	1.312235e+00	1.306304e+00	1.295204e+00	1.289140e+00	1.280047e+00	1.287057e+00	1.314670e+00	1.172633e+00	8.550968e-01	8.058807e-01	9.615630e-01	9.820778e-01	1.002409e+00	1.011730e+00	1.028721e+00	1.241763e+00	1.267674e+00	1.295299e+00	1.303848e+00	1.311976e+00	1.182613e+00	1.190924e+00	1.294442e+00	1.324988e+00	1.356407e+00	1.387243e+00	1.091912e+00	1.109027e+00	1.126852e+00	1.147622e+00	1.172471e+00	1.188657e+00	8.713537e-01	8.826461e-01	1.361030e+00	1.355620e+00	1.221441e+00	1.242051e+00	1.252050e+00	1.088014e+00	1.079132e+00	1.425471e+00	1.486560e+00	1.479599e+00	1.447135e+00	1.327458e+00	1.414087e+00	1.485469e+00	1.448977e+00	1.534585e+00	1.468566e+00	1.462735e+00	1.439257e+00	1.476190e+00	1.579960e+00	1.606034e+00	1.384684e+00	1.277055e+00	9.018965e-01	1.434160e+00	1.346000e+00	1.422542e+00	1.219764e+00	1.448178e+00	1.513312e+00	1.170980e+00	1.369544e+00	1.240176e+00	1.209087e+00	1.399255e+00	1.405677e+00	1.400366e+00	1.380937e+00	1.482740e+00	1.401716e+00	1.407532e+00	1.374131e+00	9.325375e-01	8.102252e-01	1.259651e+00	1.281122e+00	1.462385e+00	1.469179e+00	1.663683e+00	1.392966e+00	1.379197e+00	1.502400e+00	1.412392e+00	1.555393e+00	1.490715e+00	1.199617e+00	1.589574e+00	1.268343e+00	1.248040e+00	1.395934e+00	1.623219e+00	1.386946e+00	1.419202e+00	1.268834e+00	1.634339e+00	1.501817e+00	1.301421e+00	1.572417e+00	1.554343e+00	8.439128e-01	1.445856e+00	1.368323e+00	8.352833e-01	9.153687e-01	8.256782e-01	1.503369e+00	1.529257e+00	1.325982e+00	1.336078e+00	1.354188e+00	1.362014e+00	1.426782e+00	1.175023e+00	1.375314e+00	1.380950e+00	1.160135e+00	1.301738e+00	1.309958e+00	1.284774e+00	1.228352e+00	1.207526e+00	1.186852e+00	1.357813e+00	1.104662e+00	1.133327e+00	1.166144e+00	1.145508e+00	1.249988e+00	1.390252e+00	8.509582e-01	8.586247e-01	1.087549e+00	1.342411e+00	1.332912e+00	1.303854e+00	1.323880e+00	1.316119e+00	1.309717e+00	1.298311e+00	1.293176e+00	1.285077e+00	1.279590e+00	1.298663e+00	1.289465e+00	1.040368e+00	9.516643e-01	9.724202e-01	9.943054e-01	1.016410e+00	1.036527e+00	1.063068e+00	1.256905e+00	1.283417e+00	1.293051e+00	1.317524e+00	1.181985e+00	1.190933e+00	1.307607e+00	1.334322e+00	1.363508e+00	1.391272e+00	1.419471e+00	1.111693e+00	1.131362e+00	1.147900e+00	1.166522e+00	1.189975e+00	8.682498e-01	8.791665e-01	8.906944e-01	1.360363e+00	1.351660e+00	1.219589e+00	1.230122e+00	1.126272e+00	1.109972e+00	1.097914e+00	1.093399e+00	1.463403e+00	1.468342e+00	1.462684e+00	1.430593e+00	1.535754e+00	1.452050e+00	1.490718e+00	1.372668e+00	1.499830e+00	1.433496e+00	1.431235e+00	1.389210e+00	1.477567e+00	1.380664e+00	9.623631e-01	1.452168e+00	1.456825e+00	1.461613e+00	1.478748e+00	1.443965e+00	1.195350e+00	1.330290e+00	1.351089e+00	1.283592e+00	1.444812e+00	1.441103e+00	1.436973e+00	1.495470e+00	1.519651e+00	8.275591e-01	1.248685