# vtk DataFile Version 3.0
vtk output
ASCII
DATASET UNSTRUCTURED_GRID
POINTS 5233 double
9.997500e-01	-3.632897e-05	0.0	9.990000e-01	-1.452538e-04	0.0	9.977600e-01	-3.251112e-04	0.0	9.960200e-01	-5.769984e-04	0.0	9.937800e-01	-9.004365e-04	0.0	9.910500e-01	-1.293364e-03	0.0	9.878400e-01	-1.753610e-03	0.0	9.841300e-01	-2.283177e-03	0.0	9.799500e-01	-2.876826e-03	0.0	9.752800e-01	-3.536324e-03	0.0	9.701500e-01	-4.256269e-03	0.0	9.645400e-01	-5.038225e-03	0.0	9.584700e-01	-5.878077e-03	0.0	9.519400e-01	-6.774429e-03	0.0	9.449600e-01	-7.724467e-03	0.0	9.375400e-01	-8.725349e-03	0.0	9.296900e-01	-9.774221e-03	0.0	9.214000e-01	-1.087086e-02	0.0	9.127000e-01	-1.200973e-02	0.0	9.035800e-01	-1.319056e-02	0.0	8.940600e-01	-1.440916e-02	0.0	8.841500e-01	-1.566269e-02	0.0	8.738500e-01	-1.694956e-02	0.0	8.631800e-01	-1.826569e-02	0.0	8.521600e-01	-1.960709e-02	0.0	8.407700e-01	-2.097463e-02	0.0	8.290500e-01	-2.236196e-02	0.0	8.170100e-01	-2.376642e-02	0.0	8.046400e-01	-2.518764e-02	0.0	7.919700e-01	-2.662063e-02	0.0	7.790100e-01	-2.806277e-02	0.0	7.657800e-01	-2.951034e-02	0.0	7.522800e-01	-3.096181e-02	0.0	7.385200e-01	-3.241453e-02	0.0	7.245300e-01	-3.386377e-02	0.0	7.103200e-01	-3.530689e-02	0.0	6.958900e-01	-3.674225e-02	0.0	6.812700e-01	-3.816515e-02	0.0	6.664700e-01	-3.957289e-02	0.0	6.515000e-01	-4.096270e-02	0.0	6.363800e-01	-4.233084e-02	0.0	6.211300e-01	-4.367359e-02	0.0	6.057600e-01	-4.498807e-02	0.0	5.902800e-01	-4.627133e-02	0.0	5.747100e-01	-4.751951e-02	0.0	5.590600e-01	-4.872956e-02	0.0	5.433600e-01	-4.989684e-02	0.0	5.276100e-01	-5.101898e-02	0.0	5.118400e-01	-5.209138e-02	0.0	4.960500e-01	-5.311154e-02	0.0	4.802700e-01	-5.407492e-02	0.0	4.645100e-01	-5.497836e-02	0.0	4.487800e-01	-5.581860e-02	0.0	4.331100e-01	-5.659142e-02	0.0	4.175000e-01	-5.729417e-02	0.0	4.019700e-01	-5.792324e-02	0.0	3.865400e-01	-5.847521e-02	0.0	3.712300e-01	-5.894684e-02	0.0	3.560400e-01	-5.933562e-02	0.0	3.409900e-01	-5.963848e-02	0.0	3.261100e-01	-5.985254e-02	0.0	3.114000e-01	-5.997565e-02	0.0	2.968700e-01	-6.000550e-02	0.0	2.825500e-01	-5.994005e-02	0.0	2.684500e-01	-5.977766e-02	0.0	2.545700e-01	-5.951658e-02	0.0	2.409400e-01	-5.915586e-02	0.0	2.275700e-01	-5.869457e-02	0.0	2.144700e-01	-5.813197e-02	0.0	2.016600e-01	-5.746811e-02	0.0	1.891400e-01	-5.670228e-02	0.0	1.769300e-01	-5.583514e-02	0.0	1.650400e-01	-5.486709e-02	0.0	1.534900e-01	-5.379978e-02	0.0	1.422900e-01	-5.263443e-02	0.0	1.314400e-01	-5.137134e-02	0.0	1.209500e-01	-5.001187e-02	0.0	1.108500e-01	-4.856067e-02	0.0	1.011300e-01	-4.701715e-02	0.0	9.181000e-02	-4.538527e-02	0.0	8.290000e-02	-4.366791e-02	0.0	7.440000e-02	-4.186608e-02	0.0	6.633000e-02	-3.998514e-02	0.0	5.869000e-02	-3.802636e-02	0.0	5.149000e-02	-3.599338e-02	0.0	4.474000e-02	-3.389028e-02	0.0	3.844000e-02	-3.171811e-02	0.0	3.260000e-02	-2.948109e-02	0.0	2.723000e-02	-2.718420e-02	0.0	2.232000e-02	-2.482329e-02	0.0	1.790000e-02	-2.241365e-02	0.0	1.395000e-02	-1.994492e-02	0.0	1.049000e-02	-1.742916e-02	0.0	7.520000e-03	-1.486756e-02	0.0	5.040000e-03	-1.226032e-02	0.0	3.050000e-03	-9.605565e-03	0.0	1.560000e-03	-6.917518e-03	0.0	5.600000e-04	-4.173160e-03	0.0	6.000000e-05	-1.375330e-03	0.0	0.000000e+00	0.000000e+00	0.0	6.000000e-05	1.375330e-03	0.0	5.600000e-04	4.173160e-03	0.0	1.560000e-03	6.917518e-03	0.0	3.050000e-03	9.605565e-03	0.0	5.040000e-03	1.226032e-02	0.0	7.520000e-03	1.486756e-02	0.0	1.049000e-02	1.742916e-02	0.0	1.395000e-02	1.994492e-02	0.0	1.790000e-02	2.241365e-02	0.0	2.232000e-02	2.482329e-02	0.0	2.723000e-02	2.718420e-02	0.0	3.260000e-02	2.948109e-02	0.0	3.844000e-02	3.171811e-02	0.0	4.474000e-02	3.389028e-02	0.0	5.149000e-02	3.599338e-02	0.0	5.869000e-02	3.802636e-02	0.0	6.633000e-02	3.998514e-02	0.0	7.440000e-02	4.186608e-02	0.0	8.290000e-02	4.366791e-02	0.0	9.181000e-02	4.538527e-02	0.0	1.011300e-01	4.701715e-02	0.0	1.108500e-01	4.856067e-02	0.0	1.209500e-01	5.001187e-02	0.0	1.314400e-01	5.137134e-02	0.0	1.422900e-01	5.263443e-02	0.0	1.534900e-01	5.379978e-02	0.0	1.650400e-01	5.486709e-02	0.0	1.769300e-01	5.583514e-02	0.0	1.891400e-01	5.670228e-02	0.0	2.016600e-01	5.746811e-02	0.0	2.144700e-01	5.813197e-02	0.0	2.275700e-01	5.869457e-02	0.0	2.409400e-01	5.915586e-02	0.0	2.545700e-01	5.951658e-02	0.0	2.684500e-01	5.977766e-02	0.0	2.825500e-01	5.994005e-02	0.0	2.968700e-01	6.000550e-02	0.0	3.114000e-01	5.997565e-02	0.0	3.261100e-01	5.985254e-02	0.0	3.409900e-01	5.963848e-02	0.0	3.560400e-01	5.933562e-02	0.0	3.712300e-01	5.894684e-02	0.0	3.865400e-01	5.847521e-02	0.0	4.019700e-01	5.792324e-02	0.0	4.175000e-01	5.729417e-02	0.0	4.331100e-01	5.659142e-02	0.0	4.487800e-01	5.581860e-02	0.0	4.645100e-01	5.497836e-02	0.0	4.802700e-01	5.407492e-02	0.0	4.960500e-01	5.311154e-02	0.0	5.118400e-01	5.209138e-02	0.0	5.276100e-01	5.101898e-02	0.0	5.433600e-01	4.989684e-02	0.0	5.590600e-01	4.872956e-02	0.0	5.747100e-01	4.751951e-02	0.0	5.902800e-01	4.627133e-02	0.0	6.057600e-01	4.498807e-02	0.0	6.211300e-01	4.367359e-02	0.0	6.363800e-01	4.233084e-02	0.0	6.515000e-01	4.096270e-02	0.0	6.664700e-01	3.957289e-02	0.0	6.812700e-01	3.816515e-02	0.0	6.958900e-01	3.674225e-02	0.0	7.103200e-01	3.530689e-02	0.0	7.245300e-01	3.386377e-02	0.0	7.385200e-01	3.241453e-02	0.0	7.522800e-01	3.096181e-02	0.0	7.657800e-01	2.951034e-02	0.0	7.790100e-01	2.806277e-02	0.0	7.919700e-01	2.662063e-02	0.0	8.046400e-01	2.518764e-02	0.0	8.170100e-01	2.376642e-02	0.0	8.290500e-01	2.236196e-02	0.0	8.407700e-01	2.097463e-02	0.0	8.521600e-01	1.960709e-02	0.0	8.631800e-01	1.826569e-02	0.0	8.738500e-01	1.694956e-02	0.0	8.841500e-01	1.566269e-02	0.0	8.940600e-01	1.440916e-02	0.0	9.035800e-01	1.319056e-02	0.0	9.127000e-01	1.200973e-02	0.0	9.214000e-01	1.087086e-02	0.0	9.296900e-01	9.774221e-03	0.0	9.375400e-01	8.725349e-03	0.0	9.449600e-01	7.724467e-03	0.0	9.519400e-01	6.774429e-03	0.0	9.584700e-01	5.878077e-03	0.0	9.645400e-01	5.038225e-03	0.0	9.701500e-01	4.256269e-03	0.0	9.752800e-01	3.536324e-03	0.0	9.799500e-01	2.876826e-03	0.0	9.841300e-01	2.283177e-03	0.0	9.878400e-01	1.753610e-03	0.0	9.910500e-01	1.293364e-03	0.0	9.937800e-01	9.004365e-04	0.0	9.960200e-01	5.769984e-04	0.0	9.977600e-01	3.251112e-04	0.0	9.990000e-01	1.452538e-04	0.0	9.997500e-01	3.632897e-05	0.0	1.000000e+00	0.000000e+00	0.0	1.984229e+01	2.506660e+00	0.0	1.937166e+01	4.973800e+00	0.0	1.859553e+01	7.362490e+00	0.0	1.752613e+01	9.635070e+00	0.0	1.618034e+01	1.175571e+01	0.0	1.457937e+01	1.369094e+01	0.0	1.274848e+01	1.541027e+01	0.0	1.071654e+01	1.688656e+01	0.0	8.515590e+00	1.809654e+01	0.0	6.180340e+00	1.902113e+01	0.0	3.747630e+00	1.964575e+01	0.0	1.255810e+00	1.996053e+01	0.0	-1.255810e+00	1.996053e+01	0.0	-3.747630e+00	1.964574e+01	0.0	-6.180340e+00	1.902113e+01	0.0	-8.515590e+00	1.809654e+01	0.0	-1.071654e+01	1.688656e+01	0.0	-1.274848e+01	1.541026e+01	0.0	-1.457937e+01	1.369094e+01	0.0	-1.618034e+01	1.175570e+01	0.0	-1.752613e+01	9.635070e+00	0.0	-1.859553e+01	7.362490e+00	0.0	-1.937166e+01	4.973800e+00	0.0	-1.984229e+01	2.506660e+00	0.0	-2.000000e+01	0.000000e+00	0.0	-1.984229e+01	-2.506670e+00	0.0	-1.937166e+01	-4.973800e+00	0.0	-1.859553e+01	-7.362490e+00	0.0	-1.752613e+01	-9.635080e+00	0.0	-1.618034e+01	-1.175571e+01	0.0	-1.457937e+01	-1.369094e+01	0.0	-1.274848e+01	-1.541027e+01	0.0	-1.071653e+01	-1.688656e+01	0.0	-8.515580e+00	-1.809654e+01	0.0	-6.180340e+00	-1.902113e+01	0.0	-3.747620e+00	-1.964575e+01	0.0	-1.255810e+00	-1.996053e+01	0.0	1.255810e+00	-1.996053e+01	0.0	3.747630e+00	-1.964574e+01	0.0	6.180340e+00	-1.902113e+01	0.0	8.515590e+00	-1.809654e+01	0.0	1.071654e+01	-1.688656e+01	0.0	1.274848e+01	-1.541026e+01	0.0	1.457937e+01	-1.369094e+01	0.0	1.618034e+01	-1.175570e+01	0.0	1.752614e+01	-9.635070e+00	0.0	1.859553e+01	-7.362490e+00	0.0	1.937166e+01	-4.973790e+00	0.0	1.984229e+01	-2.506660e+00	0.0	2.000000e+01	0.000000e+00	0.0	6.071847e-02	-4.599300e-02	0.0	6.602584e-01	-5.397924e-02	0.0	4.259462e-01	7.123173e-02	0.0	6.898893e-01	5.084802e-02	0.0	3.793152e-01	-7.273116e-02	0.0	9.994604e-01	-7.202256e-04	0.0	9.985440e-01	-1.312423e-03	0.0	7.737237e-01	-4.090969e-02	0.0	6.898893e-01	-5.084802e-02	0.0	-1.456769e-03	6.464601e-03	0.0	7.467285e-01	-4.428984e-02	0.0	5.836398e-01	6.115854e-02	0.0	9.927702e-01	-3.577733e-03	0.0	9.898650e-01	-4.450375e-03	0.0	5.991925e-01	5.980916e-02	0.0	7.187526e-01	-4.760665e-02	0.0	-1.597618e-03	7.671995e-04	0.0	9.864674e-01	-5.394793e-03	0.0	9.825871e-01	-6.398977e-03	0.0	-1.456774e-03	-6.464600e-03	0.0	6.451948e-01	-5.549610e-02	0.0	8.243215e-01	-3.409983e-02	0.0	7.996157e-01	-3.751255e-02	0.0	3.487901e-01	7.326090e-02	0.0	8.477112e-01	-3.071909e-02	0.0	2.474256e-01	7.182160e-02	0.0	8.697233e-01	-2.738134e-02	0.0	9.916188e-03	2.185203e-02	0.0	8.902508e-01	-2.411717e-02	0.0	7.700293e-02	-5.054436e-02	0.0	9.092206e-01	-2.095307e-02	0.0	-1.944578e-03	-3.190372e-03	0.0	9.421664e-01	-1.502079e-02	0.0	9.265514e-01	-1.791177e-02	0.0	1.789678e-02	-2.766280e-02	0.0	4.259462e-01	-7.123173e-02	0.0	8.588986e-01	-2.904064e-02	0.0	9.560213e-01	-1.230722e-02	0.0	9.782180e-01	-7.479396e-03	0.0	9.680592e-01	-9.783205e-03	0.0	1.582863e-01	-6.490557e-02	0.0	8.999374e-01	-2.252139e-02	0.0	7.603588e-01	-4.260503e-02	0.0	9.971186e-01	-2.046344e-03	0.0	5.991925e-01	-5.980916e-02	0.0	4.416505e-01	-7.055456e-02	0.0	5.365104e-01	-6.487405e-02	0.0	4.732224e-01	-6.895566e-02	0.0	5.048788e-01	-6.705339e-02	0.0	4.890394e-01	-6.804024e-02	0.0	1.249513e-01	-6.028257e-02	0.0	2.780447e-02	-3.325805e-02	0.0	3.947663e-01	-7.232395e-02	0.0	4.619013e-02	-4.112619e-02	0.0	4.103114e-01	-7.182380e-02	0.0	3.188732e-01	-7.337957e-02	0.0	3.487901e-01	-7.326089e-02	0.0	3.347228e-02	-3.593942e-02	0.0	2.896464e-01	-7.308006e-02	0.0	9.345773e-01	-1.644433e-02	0.0	1.468197e-01	-6.346812e-02	0.0	1.946953e-01	-6.854614e-02	0.0	8.578013e-02	-5.268667e-02	0.0	1.045788e-01	-5.669131e-02	0.0	5.679929e-01	-6.245642e-02	0.0	1.700976e-01	-6.623429e-02	0.0	6.146535e-01	-5.841132e-02	0.0	8.801811e-01	-2.573953e-02	0.0	2.262334e-02	-3.049739e-02	0.0	9.951933e-01	-2.788490e-03	0.0	6.656769e-03	-1.887280e-02	0.0	1.789679e-02	2.766280e-02	0.0	9.180944e-01	-1.941524e-02	0.0	9.4932
[...]
POINT_DATA 5233

SCALARS Density double 1
LOOKUP_TABLE default
1.451180e+00	1.431570e+00	1.414649e+00	1.400357e+00	1.388124e+00	1.377362e+00	1.367622e+00	1.358657e+00	1.350276e+00	1.342356e+00	1.334784e+00	1.327496e+00	1.320452e+00	1.313619e+00	1.306984e+00	1.300540e+00	1.294280e+00	1.288201e+00	1.282288e+00	1.276527e+00	1.270896e+00	1.265360e+00	1.259879e+00	1.254409e+00	1.248916e+00	1.243388e+00	1.237842e+00	1.232304e+00	1.226790e+00	1.221284e+00	1.215744e+00	1.210128e+00	1.204438e+00	1.198700e+00	1.192960e+00	1.187241e+00	1.181534e+00	1.175841e+00	1.170145e+00	1.164460e+00	1.158784e+00	1.153140e+00	1.147530e+00	1.141983e+00	1.136495e+00	1.131086e+00	1.125745e+00	1.120492e+00	1.115334e+00	1.110331e+00	1.105552e+00	1.101105e+00	1.097066e+00	1.093481e+00	1.090374e+00	1.087757e+00	1.085653e+00	1.084075e+00	1.083031e+00	1.082523e+00	1.082544e+00	1.083092e+00	1.084146e+00	1.085703e+00	1.087752e+00	1.090286e+00	1.093300e+00	1.096804e+00	1.100826e+00	1.105414e+00	1.110615e+00	1.116517e+00	1.123169e+00	1.130638e+00	1.138972e+00	1.148229e+00	1.158454e+00	1.169671e+00	1.181858e+00	1.195025e+00	1.209206e+00	1.224496e+00	1.241067e+00	1.259121e+00	1.278899e+00	1.300781e+00	1.325175e+00	1.352537e+00	1.383414e+00	1.418438e+00	1.458499e+00	1.504192e+00	1.556095e+00	1.614129e+00	1.677002e+00	1.740995e+00	1.799652e+00	1.843261e+00	1.842596e+00	1.820843e+00	1.829551e+00	1.809620e+00	1.735684e+00	1.650206e+00	1.565867e+00	1.488699e+00	1.421128e+00	1.363161e+00	1.313804e+00	1.271683e+00	1.235674e+00	1.204519e+00	1.177337e+00	1.153427e+00	1.132243e+00	1.113328e+00	1.096266e+00	1.080742e+00	1.066468e+00	1.053195e+00	1.040765e+00	1.029113e+00	1.018229e+00	1.008187e+00	9.990327e-01	9.907799e-01	9.833616e-01	9.766670e-01	9.706298e-01	9.652536e-01	9.605730e-01	9.565975e-01	9.533139e-01	9.506550e-01	9.485844e-01	9.470532e-01	9.460522e-01	9.455652e-01	9.456087e-01	9.462052e-01	9.473825e-01	9.491724e-01	9.516158e-01	9.547895e-01	9.587762e-01	9.636679e-01	9.695240e-01	9.763860e-01	9.842363e-01	9.930151e-01	1.002583e+00	1.012832e+00	1.023648e+00	1.034957e+00	1.046628e+00	1.058438e+00	1.070145e+00	1.081523e+00	1.092484e+00	1.102979e+00	1.113041e+00	1.122684e+00	1.131959e+00	1.140886e+00	1.149508e+00	1.157844e+00	1.165936e+00	1.173808e+00	1.181509e+00	1.189069e+00	1.196521e+00	1.203867e+00	1.211081e+00	1.218144e+00	1.225055e+00	1.231821e+00	1.238459e+00	1.244994e+00	1.251468e+00	1.257928e+00	1.264430e+00	1.271020e+00	1.277737e+00	1.284606e+00	1.291628e+00	1.298809e+00	1.306152e+00	1.313670e+00	1.321391e+00	1.329348e+00	1.337600e+00	1.346254e+00	1.355424e+00	1.365292e+00	1.376085e+00	1.388229e+00	1.402226e+00	1.418457e+00	1.433358e+00	1.459793e+00	1.290679e+00	1.290926e+00	1.291269e+00	1.291533e+00	1.291592e+00	1.291569e+00	1.291566e+00	1.291526e+00	1.291606e+00	1.291617e+00	1.291749e+00	1.291857e+00	1.291947e+00	1.292123e+00	1.292274e+00	1.292384e+00	1.292464e+00	1.292529e+00	1.292572e+00	1.292610e+00	1.292635e+00	1.292659e+00	1.292683e+00	1.292706e+00	1.292730e+00	1.292761e+00	1.292789e+00	1.292816e+00	1.292857e+00	1.292904e+00	1.292956e+00	1.293024e+00	1.293099e+00	1.293181e+00	1.293268e+00	1.293355e+00	1.293419e+00	1.293407e+00	1.293354e+00	1.293299e+00	1.293226e+00	1.293103e+00	1.292991e+00	1.292846e+00	1.292668e+00	1.292446e+00	1.292101e+00	1.291646e+00	1.291097e+00	1.290687e+00	1.268517e+00	1.170828e+00	9.679983e-01	1.130841e+00	1.092035e+00	1.449071e+00	1.429292e+00	1.216087e+00	1.182069e+00	1.713165e+00	1.204802e+00	1.056711e+00	1.387459e+00	1.376877e+00	1.068347e+00	1.193383e+00	1.744513e+00	1.367280e+00	1.358407e+00	1.749427e+00	1.165243e+00	1.238148e+00	1.227106e+00	9.556639e-01	1.249220e+00	9.644644e-01	1.260174e+00	1.418532e+00	1.271159e+00	1.234113e+00	1.282499e+00	1.766819e+00	1.307060e+00	1.294427e+00	1.452652e+00	1.098204e+00	1.254709e+00	1.320455e+00	1.350102e+00	1.334707e+00	1.140299e+00	1.276766e+00	1.210476e+00	1.412887e+00	1.148689e+00	1.101277e+00	1.127694e+00	1.108835e+00	1.117866e+00	1.113222e+00	1.168031e+00	1.386544e+00	1.093570e+00	1.309128e+00	1.095635e+00	1.091312e+00	1.090591e+00	1.358114e+00	1.094141e+00	1.300650e+00	1.148636e+00	1.120130e+00	1.218805e+00	1.191385e+00	1.138002e+00	1.132812e+00	1.154159e+00	1.265642e+00	1.417920e+00	1.399336e+00	1.577547e+00	1.326138e+00	1.288382e+00	1.313659e+00	1.342235e+00	1.656012e+00	1.243694e+00	1.102199e+00	1.132808e+00	1.199084e+00	1.221612e+00	1.179212e+00	1.110063e+00	1.143312e+00	1.176449e+00	1.287963e+00	1.624201e+00	1.490994e+00	1.091043e+00	1.126106e+00	1.482539e+00	1.105870e+00	1.204579e+00	1.092473e+00	1.099009e+00	1.104832e+00	1.187720e+00	1.747074e+00	1.713184e+00	1.022849e+00	1.750650e+00	1.253686e+00	1.151022e+00	1.196514e+00	1.043393e+00	9.639354e-01	1.400999e+00	1.012578e+00	9.860571e-01	1.329381e+00	1.313719e+00	1.251526e+00	9.940769e-01	9.730071e-01	9.583722e-01	1.277815e+00	1.264509e+00	1.097619e+00	1.337616e+00	1.306208e+00	1.291697e+00	1.068644e+00	1.131538e+00	9.573838e-01	9.615404e-01	9.960948e-01	9.553996e-01	9.790283e-01	9.607613e-01	1.012331e+00	1.032087e+00	1.090776e+00	9.826991e-01	9.721765e-01	1.111610e+00	1.045092e+00	1.165313e+00	1.148663e+00	1.196191e+00	1.181053e+00	1.224959e+00	1.210879e+00	1.258001e+00	1.238460e+00	1.298871e+00	1.271101e+00	1.321432e+00	1.231774e+00	1.245029e+00	1.203606e+00	1.217998e+00	1.173269e+00	1.188676e+00	1.139905e+00	1.157112e+00	1.101391e+00	1.121405e+00	1.033729e+00	1.079727e+00	9.770780e-01	9.679987e-01	1.003831e+00	9.890586e-01	1.172520e+00	1.021728e+00	1.369674e+00	1.223430e+00	1.114798e+00	1.532023e+00	1.327461e+00	1.232613e+00	1.090686e+00	1.122720e+00	1.594151e+00	1.287672e+00	1.472884e+00	1.082622e+00	1.113833e+00	9.591795e-01	1.055579e+00	1.346234e+00	1.355355e+00	9.561169e-01	1.365129e+00	1.375800e+00	9.552380e-01	9.567013e-01	1.284678e+00	1.465764e+00	1.416858e+00	1.435625e+00	1.159671e+00	1.332403e+00	1.387651e+00	1.002941e+00	1.670530e+00	1.532759e+00	1.250625e+00	1.157859e+00	1.096326e+00	1.134592e+00	1.691352e+00	1.733615e+00	1.106434e+00	1.188066e+00	1.287036e+00	1.574335e+00	1.056025e+00	1.182542e+00	1.221434e+00	1.372017e+00	1.100880e+00	1.254129e+00	1.243207e+00	1.232338e+00	1.730037e+00	1.126141e+00	1.496663e+00	1.325040e+00	1.160771e+00	1.193565e+00	1.171624e+00	1.109865e+00	1.247989e+00	1.101076e+00	1.275716e+00	1.226819e+00	1.479825e+00	1.346375e+00	1.120131e+00	1.223794e+00	1.072976e+00	1.129618e+00	1.018940e+00	1.243798e+00	1.360110e+00	9.666197e-01	1.014202e+00	1.303691e+00	1.250217e+00	1.369985e+00	1.311006e+00	1.342331e+00	9.812541e-01	9.669864e-01	9.856764e-01	1.086851e+00	1.177101e+00	1.131665e+00	1.431433e+00	1.037431e+00	1.195393e+00	1.326183e+00	1.380786e+00	1.256579e+00	1.152302e+00	1.495689e+00	1.407690e+00	1.392913e+00	1.531412e+00	1.638546e+00	1.615504e+00	1.756105e+00	1.744295e+00	1.461316e+00	1.504057e+00	1.282829e+00	1.419710e+00	1.392520e+00	9.746776e-01	1.135351e+00	1.363107e+00	1.264869e+00	1.067508e+00	1.381762e+00	1.757179e+00	1.106903e+00	9.714955e-01	1.248701e+00	9.716094e-01	1.259513e+00	1.270255e+00	1.264770e+00	1.281299e+00	1.292920e+00	1.311636e+00	1.399104e+00	1.318245e+00	1.332043e+00	1.354715e+00	1.180452e+00	1.210437e+00	1.216018e+00	1.404722e+00	1.113348e+00	1.117288e+00	1.121508e+00	1.428990e+00	1.102513e+00	1.104443e+00	1.100089e+00	1.346491e+00	1.298971e+00	1.305211e+00	1.170164e+00	1.217758e+00	1.140193e+00	1.155572e+00	1.339291e+00	1.346826e+00	1.199157e+00	1.204802e+00	1.204251e+00	1.191789e+00	1.145235e+00	1.150316e+00	1.323613e+00	1.302455e+00	1.534352e+00	1.099872e+00	1.100186e+00	1.144666e+00	1.137838e+00	1.121154e+00	1.116734e+00	1.104066e+00	1.102193e+00	1.112778e+00	1.745324e+00	1.656458e+00	1.219675e+00	1.350999e+00	1.023665e+00	1.005299e+00	9.972342e-01	9.900318e-01	1.334110e+00	1.318494e+00	1.275945e+00	9.838978e-01	9.787693e-01	9.692154e-01	1.269391e+00	1.296531e+00	1.153010e+00	1.173251e+00	9.774796e-01	9.742311e-01	1.027790e+00	1.048123e+00	1.060040e+00	1.194970e+00	1.164189e+00	1.155949e+00	1.187474e+00	1.216849e+00	1.262954e+00	1.237277e+00	1.230597e+00	1.209700e+00	1.202394e+00	1.179904e+00	1.172119e+00	1.147501e+00	1.138686e+00	1.110365e+00	1.100145e+00	1.044719e+00	1.033888e+00	1.089639e+00	1.078684e+00	9.907353e-01	9.966134e-01	1.003265e+00	1.010772e+00	1.387041e+00	1.246663e+00	1.276776e+00	1.232220e+00	1.237690e+00	1.126001e+00	1.130560e+00	1.584954e+00	1.309927e+00	1.101711e+00	1.117579e+00	9.679765e-01	9.694981e-01	9.676819e-01	9.668627e-01	1.289518e+00	1.282653e+00	1.160841e+00	1.166242e+00	1.371544e+00	1.694760e+00	1.109355e+00	1.720425e+00	1.110467e+00	1.116973e+00	1.227034e+00	1.138691e+00	1.291775e+00	1.364839e+00	1.355787e+00	1.316044e+00	1.566144e+00	1.374820e+00	1.425138e+00	1.470451e+00	1.409914e+00	1.504120e+00	1.463626e+00	1.714236e+00	1.245007e+00	1.297648e+00	1.376734e+00	1.055990e+00	1.437684e+00	1.597052e+00	1.194152e+00	1.662292e+00	1.199699e+00	1.494921e+00	1.264509e+00	1.562176e+00	1.110780e+00	1.259287e+00	1.188930e+00	1.386625e+00	1.528061e+00	1.338979e+00	1.025556e+00	1.301628e+00	1.119233e+00	1.385311e+00	1.017261e+00	9.878864e-01	9.793803e-01	1.044123e+00	1.173243e+00	1.446793e+00	1.691468e+00	1.652936e+00	1.396598e+00	1.695553e+00	1.329827e+00	1.260794e+00	1.728847e+00	1.173110e+00	1.118747e+00	1.434434e+00	1.477834e+00	1.223102e+00	1.194267e+00	1.128904e+00	1.347224e+00	1.308764e+00	1.255636e+00	1.249414e+00	9.805612e-01	9.848251e-01	1.000199e+00	1.104890e+00	1.178302e+00	1.183457e+00	1.143697e+00	1.436121e+00	1.054054e+00	1.331131e+00	1.397968e+00	1.521712e+00	1.609856e+00	1.630866e+00	1.725678e+00	1.406576e+00	1.483928e+00	1.459555e+00	1.336808e+00	1.367832e+00	1.067580e+00	1.115823e+00	9.829012e-01	1.248581e+00	1.253975e+00	1.269743e+00	1.275031e+00	1.295394e+00	1.277569e+00	1.280444e+00	1.286037e+00	1.316442e+00	1.323050e+00	1.359488e+00	1.216537e+00	1.221731e+00	1.397193e+00	1.122190e+00	1.126059e+00	1.111714e+00	1.113531e+00	1.380804e+00	1.303721e+00	1.309995e+00	1.192954e+00	1.182535e+00	1.143010e+00	1.147842e+00	1.344040e+00	1.351539e+00	1.205098e+00	1.210805e+00	1.230245e+00	1.216580e+00	1.204196e+00	1.152488e+00	1.157604e+00	1.357230e+00	1.335288e+00	1.314577e+00	1.109884e+00	1.109465e+00	1.109697e+00	1.164570e+00	1.156976e+00	1.149974e+00	1.137887e+00	1.132723e+00	1.114332e+00	1.112326e+00	1.127962e+00	1.239671e+00	1.009002e+00	1.001706e+00	1.323488e+00	9.953684e-01	9.902191e-01	9.860053e-01	9.806072e-01	1.274481e+00	1.193517e+00	1.215748e+00	9.913612e-01	9.956012e-01	1.064739e+00	1.076701e+00	1.090320e+00	1.163599e+00	1.268115e+00	1.261858e+00	1.243085e+00	1.236608e+00	1.229870e+00	1.216373e+00	1.208978e+00	1.201504e+00	1.186690e+00	1.179302e+00	1.171391e+00	1.155180e+00	1.146854e+00	1.137836e+00	1.109675e+00	1.044929e+00	1.035088e+00	1.099360e+00	1.089213e+00	1.078295e+00	1.005568e+00	1.011455e+00	1.018357e+00	1.026022e+00	1.034777e+00	1.265796e+00	1.294717e+00	1.232140e+00	1.237530e+00	1.243082e+00	1.130262e+00	1.134203e+00	1.326334e+00	1.359973e+00	1.120456e+00	1.137045e+00	1.154585e+00	9.824789e-01	9.793082e-01	9.786669e-01	9.787657e-01	1.294627e+00	1.287754e+00	1.281030e+00	1.162506e+00	1.167818e+00	1.172884e+00	1.123782e+00	1.120053e+00	1.687704e+00	1.257264e+00	1.389413e+00	1.343753e+00	1.145283e+00	1.685500e+00	1.422391e+00	1.296801e+00	1.302544e+00	1.411667e+00	1.369169e+00	1.021706e+00	1.660465e+00	1.437966e+00	1.579279e+00	1.313957e+00	1.379453e+00	1.622086e+00	1.117825e+00	1.586031e+00	1.484207e+00	1.493096e+00	1.231728e+00	1.185980e+00	1.463935e+00	1.120084e+00	1.273159e+00	1.125100e+00	1.127825e+00	1.351856e+00	1.055489e+00	1.306878e+00	1.299919e+00	1.193364e+00	1.071969e+00	1.006476e+00	1.372270e+00	1.213020e+00	1.264657e+00	1.410458e+00	1.360240e+00	1.401310e+00	1.341591e+00	1.491198e+00	1.194347e+00	1.608407e+00	1.200137e+00	1.204941e+00	1.520418e+00	1.381090e+00	1.549795e+00	1.222240e+00	1.027387e+00	9.960414e-01	1.660815e+00	1.474082e+00	1.127976e+00	1.255228e+00	9.941080e-01	9.991180e-01	1.002210e+00	1.183946e+00	1.189752e+00	1.335988e+00	1.511336e+00	1.549282e+00	1.635433e+00	1.699906e+00	1.437419e+00	1.334675e+00	1.364049e+00	1.068446e+00	1.254281e+00	1.259658e+00	1.269750e+00	1.274756e+00	1.307373e+00	1.289916e+00	1.280018e+00	1.285328e+00	1.291002e+00	1.321418e+00	1.327970e+00	1.221845e+00	1.227249e+00	1.391335e+00	1.127797e+00	1.131359e+00	1.121283e+00	1.122740e+00	1.308651e+00	1.314983e+00	1.205911e+00	1.195374e+00	1.150517e+00	1.348719e+00	1.356183e+00	1.210861e+00	1.217504e+00	1.242543e+00	1.229132e+00	1.217061e+00	1.154127e+00	1.159650e+00	1.388232e+00	1.366380e+00	1.345550e+00	1.325700e+00	1.121197e+00	1.119923e+00	1.119521e+00	1.119429e+00	1.177719e+00	1.169912e+00	1.162936e+00	1.156240e+00	1.150363e+00	1.122736e+00	1.125157e+00	1.144710e+00	1.013791e+00	1.328498e+00	1.321150e+00	1.007555e+00	1.002041e+00	9.981123e-01	9.947237e-01	9.928067e-01	1.234597e+00	1.257796e+00	1.010767e+00	1.016233e+00	1.082773e+00	1.094611e+00	1.107987e+00	1.123102e+00	1.273519e+00	1.267310e+00	1.261343e+00	1.249258e+00	1.242930e+00	1.236438e+00	1.228955e+00	1.216401e+00	1.207809e+00	1.200174e+00	1.185534e+00	1.178543e+00	1.170254e+00	1.162835e+00	1.153958e+00	1.146004e+00	1.136492e+00	1.036731e+00	1.044691e+00	1.108830e+00	1.098106e+00	1.088860e+00	1.077639e+00	1.021564e+00	1.028120e+00	1.034738e+00	1.042885e+00	1.051572e+00	1.061474e+00	1.282584e+00	1.309602e+00	1.237105e+00	1.243262e+00	1.248778e+00	1.135380e+00	1.137456e+00	1.142265e+00	1.339386e+00	1.370426e+00	1.402904e+00	1.139250e+00	1.156453e+00	1.174629e+00	1.193384e+00	9.913198e-01	9.912323e-01	9.914370e-01	9.923236e-01	1.279732e+00	1.293061e+00	1.286299e+00	1.163673e+00	1.169383e+00	1.173682e+00	1.179475e+00	1.139804e+00	1.135127e+00	1.131352e+00	1.511479e+00	1.386196e+00	1.339470e+00	1.463154e+00	1.537062e+00	1.208629e+00	1.268862e+00	1.561937e+00	1.340634e+00	1.610335e+00	1.438146e+00	1.198600e+00	1.101435e+00	1.469157e+00	1.564423e+00	1.650374e+00	1.700247e+00	1.700982e+00	1.684948e+00	1.631936e+00	1.398068e+00	1.009026e+00	1.346210e+00	1.376510e+00	1.306795e+00	1.234851e+00	1.129395e+00	1.373347e+00	1.277949e+00	1.298559e+00	1.051794e+00	1.036687e+00	1.122893e+00	1.189400e+00	1.025763e+00	1.152103e+00	1.004014e+00	1.364476e+00	1.284627e+00	1.435144e+00	1.348246e+00	1.690694e+00	1.475041e+00	1.447495e+00	1.301044e+00	1.415088e+00	1.654880e+00	1.437608e+00	1.586855e+00	1.312254e+00	1.594827e+00	1.484250e+00	1.487935e+00	1.486261e+00	1.133027e+00	1.138074e+00	1.356165e+00	1.068517e+00	1.305365e+00	1.368321e+00	1.198608e+00	1.626953e+00	1.009584e+00	1.016085e+00	1.017469e+00	1.188643e+00	1.500821e+00	1.532983e+00	1.668472e+00	1.462504e+00	1.260288e+00	1.264453e+00	1.269562e+00	1.274026e+00	1.301280e+00	1.318761e+00	1.279240e+00	1.284107e+00	1.289749e+00	1.296166e+00	1.326480e+00	1.332898e+00	1.226161e+00	1.385277e+00	1.132196e+00	1.136238e+00	1.128595e+00	1.131376e+00	1.313670e+00	1.320129e+00	1.217747e+00	1.204714e+00	1.353214e+00	1.360581e+00	1.218110e+00	1.253629e+00	1.238170e+00	1.230161e+00	1.160211e+00	1.394123e+00	1.374202e+00	1.354305e+00	1.336200e+00	1.132581e+00	1.128866e+00	1.129299e+00	1.126926e+00	1.128544e+00	1.187375e+00	1.182407e+00	1.172311e+00	1.168234e+00	1.159348e+00	1.333328e+00	1.326216e+00	1.319192e+00	1.017419e+00	1.013546e+00	1.007658e+00	1.006320e+00	1.002231e+00	1.252140e+00	1.274190e+00	1.025484e+00	1.027911e+00	1.108327e+00	1.125449e+00	1.141275e+00	1.272169e+00	1.266036e+00	1.260507e+00	1.254332e+00	1.248843e+00	1.242288e+00	1.236108e+00	1.226262e+00	1.215919e+00	1.203428e+00	1.174478e+00	1.158426e+00	1.141195e+00	1.103947e+00	1.085208e+00	1.037350e+00	1.040555e+00	1.051368e+00	1.055808e+00	1.068795e+00	1.079159e+00	1.090266e+00	1.297161e+00	1.321928e+00	1.243149e+00	1.248373e+00	1.254142e+00	1.140670e+00	1.145365e+00	1.349317e+00	1.378146e+00	1.406942e+00	1.157553e+00	1.174971e+00	1.193648e+00	1.213204e+00	1.232292e+00	1.003064e+00	1.000757e+00	1.003917e+00	1.004707e+00	1.291811e+00	1.284335e+00	1.169220e+00	1.178783e+00	1.156025e+00	1.148269e+00	1.145871e+00	1.139510e+00	1.431917e+00	1.419699e+00	1.545651e+00	1.657821e+00	1.479014e+00	1.350543e+00	1.360305e+00	1.597686e+00	1.317613e+00	1.404116e+00	1.364803e+00	1.638681e+00	1.437526e+00	1.524151e+00	1.021339e+00	1.469913e+00	1.490598e+00	1.570974e+00	1.502034e+00	1.343989e+00	1.155679e+00	1.352552e+00	1.146684e+00	1.311530e+00	1.302964e+00	1.179350e+00	1.278296e+00	1.206573e+00	1.605867e+00	1.138491e+00	1.311483e+00	1.295185e+00	1.137273e+00	1.337859e+00	1.279409e+00	1.619946e+00	1.463368e+00	1.337660e+00	1.449610e+00	1.344980e+00	1.690292e+00	1.625102e+00	1.372424e+00	1.217656e+00	1.039386e+00	1.027960e+00	1.368602e+00	1.475794e+00	1.392234e+00	1.669391e+00	1.461684e+00	1.417497e+00	1.587055e+00	1.566870e+00	1.067225e+00	1.459367e+00	1.310797e+00	1.303262e+00	1.052021e+00	1.028254e+00	1.037892e+00	1.207970e+00	1.518011e+00	1.544875e+00	1.480705e+00	1.268013e+00	1.276410e+00	1.328159e+00	1.285796e+00	1.295031e+00	1.331460e+00	1.380623e+00	1.140897e+00	1.318980e+00	1.325329e+00	1.223616e+00	1.357425e+00	1.226551e+00	1.234716e+00	1.258680e+00	1.241681e+00	1.162440e+00	1.398937e+00	1.379385e+00	1.359945e+00	1.347049e+00	1.141325e+00	1.138407e+00	1.138441e+00	1.190724e+00	1.176577e+00	1.331002e+00	1.324298e+00	1.019865e+00	1.015908e+00	1.287734e+00	1.050018e+00	1.158399e+00	1.214091e+00	1.268207e+00	1.257156e+00	1.246160e+00	1.236125e+00	1.225831e+00	1.200813e+00	1.186625e+00	1.171345e+00	1.154860e+00	1.137312e+00	1.119139e+00	1.101165e+00	1.083838e+00	1.064257e+00	1.080156e+00	1.095974e+00	1.103606e+00	1.120801e+00	1.310069e+00	1.332264e+00	1.243029e+00	1.251698e+00	1.260547e+00	1.145671e+00	1.150402e+00	1.356787e+00	1.383328e+00	1.409428e+00	1.435949e+00	1.175731e+00	1.192428e+00	1.210585e+00	1.230588e+00	1.251219e+00	1.264621e+00	1.015594e+00	1.018532e+00	1.296576e+00	1.289730e+00	1.170472e+00	1.188716e+00	1.198300e+00	1.164309e+00	1.154296e+00	1.376935e+00	1.438544e+00	1.429989e+00	1.399092e+00	1.376961e+00	1.364739e+00	1.469082e+00	1.399432e+00	1.548148e+00	1.492523e+00	1.410950e+00	1.388846e+00	1.504006e+00	1.592091e+00	1.611526e+00	1.329055e+00	1.226616e+00	1.036149e+00	1.387537e+00	1.292819e+00	1.455268e+00	1.292376e+00	1.480714e+00	1.530133e+00	1.148070e+00	1.317388e+00	1.189355e+00	1.165799e+00	1.348171e+00	1.354604e+00	1.435895e+00	1.419582e+00	1.456434e+00	1.348953e+00	1.356700e+00	1.316283e+00	1.052017e+00	1.082823e+00	1.207837e+00	1.333582e+00	1.417930e+00	1.426382e+00	1.665139e+00	1.342052e+00	1.322774e+00	1.474955e+00	1.361283e+00	1.572563e+00	1.511513e+00	1.160281e+00	1.598481e+00	1.321264e+00	1.303154e+00	1.342103e+00	1.632992e+00	1.336139e+00	1.368879e+00	1.217342e+00	1.643349e+00	1.467566e+00	1.353270e+00	1.582052e+00	1.565480e+00	1.054176e+00	1.474160e+00	1.308252e+00	1.067421e+00	1.042490e+00	1.099370e+00	1.527077e+00	1.549733e+00	1.275466e+00	1.283658e+00	1.301406e+00	1.309399e+00	1.376811e+00	1.148568e+00	1.324324e+00	1.330299e+00	1.148865e+00	1.251318e+00	1.259954e+00	1.235082e+00	1.285101e+00	1.266888e+00	1.249178e+00	1.401151e+00	1.156275e+00	1.151264e+00	1.231847e+00	1.215327e+00	1.198496e+00	1.335448e+00	1.043260e+00	1.034921e+00	1.174035e+00	1.276483e+00	1.265815e+00	1.224828e+00	1.255589e+00	1.245724e+00	1.235896e+00	1.212221e+00	1.198580e+00	1.184023e+00	1.168304e+00	1.151496e+00	1.133977e+00	1.116431e+00	1.064297e+00	1.078773e+00	1.094939e+00	1.112643e+00	1.130895e+00	1.153755e+00	1.320031e+00	1.341236e+00	1.243081e+00	1.267954e+00	1.151371e+00	1.155665e+00	1.362526e+00	1.386379e+00	1.410405e+00	1.433591e+00	1.457252e+00	1.193039e+00	1.209779e+00	1.226017e+00	1.245197e+00	1.267249e+00	1.030358e+00	1.029567e+00	1.031960e+00	1.297942e+00	1.287304e+00	1.172652e+00	1.180627e+00	1.199754e+00	1.185684e+00	1.173575e+00	1.163757e+00	1.422200e+00	1.416329e+00	1.407784e+00	1.381354e+00	1.550103e+00	1.404362e+00	1.510595e+00	1.323089e+00	1.468040e+00	1.384403e+00	1.383882e+00	1.340330e+00	1.444880e+00	1.327446e+00	1.078442e+00	1.404919e+00	1.410168e+00	1.482763e+00	1.458603e+00	1.471363e+00	1.256185e+00	1.375558e+00	1.299786e+00	1.235534e+00	1.393232e+00	1.398235e+00	1.393016e+00	1.456734e+00	1.530550e+00	1.083439e+00	1.199479