<?xml version="1.0"?>
<VTKFile type="UnstructuredGrid" version="0.1" byte_order="LittleEndian" header_type="UInt32" compressor="vtkZLibDataCompressor">
  <UnstructuredGrid>
    <Piece NumberOfPoints="5233" NumberOfCells="10216">
      <PointData>
        <DataArray type="Float64" Name="rho" format="ascii" RangeMin="0.95845265138" RangeMax="1.7412120934">
          1.5061996347 1.4806411033 1.4605827639 1.4442787793 1.4304154129 1.4182702345
          1.4073509671 1.3973708237 1.3881039461 1.3794258189 1.3711981065 1.3633318201
          1.3557660348 1.3484550726 1.3413607996 1.3344652833 1.3277402029 1.3211767642
          1.314764038 1.3084978677 1.3023802421 1.2964047664 1.2905469217 1.2847745057
          1.2790383387 1.273297278 1.2675217771 1.2617207813 1.2559308235 1.250194876
          1.2444725726 1.2386526694 1.2326140462 1.2262358474 1.219371536 1.2117931674
          1.2031596656 1.1928506989 1.1793963471 1.1594368588 1.1316616298 1.1021797302
          1.0809662787 1.0692305061 1.0633365758 1.0601112878 1.0582673328 1.0562300987
          1.053516952 1.05159751 1.0503932684 1.0493522088 1.0472299614 1.0442241155
          1.0426741979 1.0423953113 1.0424832299 1.0426561545 1.0430234385 1.0437296944
          1.0448282931 1.0464146323 1.0484884903 1.0511831051 1.0542609939 1.0577445494
          1.0616879824 1.0662436358 1.0713196511 1.0769010967 1.0828631474 1.0891031831
          1.0955837897 1.1028096706 1.1110814123 1.1201447948 1.1298114154 1.1402475111
          1.1516960927 1.1642169397 1.1777801772 1.1923604182 1.2080370629 1.2249326615
          1.2432157177 1.2632876279 1.2855049475 1.3102150551 1.3378385051 1.3688976178
          1.4038905297 1.443426064 1.4876730855 1.5365754021 1.5890899495 1.6426748881
          1.6925713624 1.7326635505 1.7412120934 1.7304604779 1.7312005625 1.7076371678
          1.6497599763 1.5844429939 1.5185949653 1.4568853702 1.401381413 1.3525710568
          1.309994197 1.2730604187 1.2408812181 1.2127215475 1.1878868573 1.1658688152
          1.1463094026 1.1287917583 1.1126978698 1.0976550698 1.0835661247 1.0704059059
          1.0582354135 1.0470389619 1.0369214979 1.0282082678 1.020879608 1.0139183654
          1.0057611986 0.99768108714 0.99168292989 0.98567136476 0.98058053669 0.97726921339
          0.97443178397 0.97132848496 0.96870527294 0.96619342348 0.96462080457 0.96335819586
          0.9623143984 0.96179683614 0.96183931056 0.96141715383 0.95845265138 0.95978590878
          0.96497023763 0.96921331745 0.97281313799 0.97606385943 0.97882769774 0.98102721936
          0.98345933129 0.98661545497 0.99015134325 0.99352024226 0.99574983883 0.9973075075
          1.0027992782 1.0097090541 1.0212522143 1.0614663001 1.128483483 1.1710693527
          1.1870225866 1.1970988507 1.2058897266 1.2135262159 1.2204085366 1.2268967191
          1.2332427555 1.2395677585 1.2458928316 1.2522070513 1.2584698613 1.2646768219
          1.2708559208 1.2770437869 1.2832617266 1.289528836 1.2958714002 1.3023270247
          1.3089205417 1.3156661195 1.322573088 1.3296442344 1.3368737023 1.3442825973
          1.3518867397 1.3597256645 1.3678423928 1.3762929479 1.3851625578 1.3945865173
          1.4046854058 1.4156783906 1.4278388906 1.4416334628 1.457720332 1.4772445417
          1.5014508044 1.5372606188 1.2886025896 1.2886025896 1.2886025896 1.2886025896
          1.2886025896 1.2886025896 1.2886025896 1.2886025896 1.2886025896 1.2886025896
          1.2886025896 1.2886025896 1.2886025896 1.2886025896 1.2886025896 1.2886025896
          1.2886025896 1.2886025896 1.2886025896 1.2886025896 1.2886025896 1.2886025896
          1.2886025896 1.2886025896 1.2886025896 1.2886025896 1.2886025896 1.2886025896
          1.2886025896 1.2886025896 1.2886025896 1.2886025896 1.2886025896 1.2886025896
          1.2886025896 1.2886025896 1.2886025896 1.2886025896 1.2886025896 1.2886025896
          1.2886025896 1.2886025896 1.2886025896 1.2886025896 1.2886025896 1.2886025896
          1.2886025896 1.2886025896 1.2886025895 1.2886025896 1.2280855821 1.1716338313
          0.97055359458 1.1812800954 1.0462254472 1.4896098338 1.4682751644 1.2425427356
          1.1994509198 1.6819051055 1.2305140628 0.99837324551 1.4236951522 1.412419294
          1.0019269903 1.2168048393 1.7261745489 1.4021630045 1.3926834573 1.7122161302
          1.1476589854 1.265464663 1.2539333484 0.96628268725 1.2769604608 0.97906496863
          1.2883787836 1.3971811841 1.3000334901 1.1955177968 1.3122111232 1.7360079628
          1.3383478787 1.3249734413 1.4017767283 1.0464330535 1.2826621096 1.3524508737
          1.3838124006 1.36748302 1.1064496698 1.306048466 1.2366705547 1.4507628933
          1.0760337938 1.0488297061 1.0595372264 1.0525747413 1.0549065685 1.0535025557
          1.1332743193 1.3387998493 1.0459007563 1.2661110378 1.0457316007 1.0499948082
          1.0473731617 1.3120210935 1.0546055288 1.331579793 1.1144619622 1.0863299252
          1.1809246325 1.1549836857 1.0635671085 1.099380024 1.0919668113 1.2941535099
          1.3685829364 1.4362663667 1.5249899195 1.3117616383 1.3185210328 1.3452973823
          1.3754546996 1.6249342761 1.2712354026 1.0651714628 1.0612040772 1.2239507626
          1.2482495586 1.1436752212 1.0747056209 1.0677560661 1.1878065094 1.2463166155
          1.5731810673 1.4388858591 1.0466638111 1.0927219404 1.5158937104 1.0696381466
          1.1673976479 1.0520303768 1.061233225 1.0512774221 1.2087939105 1.7204618151
          1.6704985262 0.99078959352 1.7306633718 1.2454829781 1.152315022 1.193479213
          1.0519741373 0.96588769227 1.4480584988 0.98751702244 0.98046351725 1.3722038733
          1.3560794598 1.2933373452 0.98271957544 0.9743216075 0.96403219709 1.3196156164
          1.3061877599 1.1029562867 1.3807693455 1.3484148831 1.3336841161 1.0754046575
          1.1346546973 0.97082026247 0.97593798096 1.0096283835 0.96773663272 0.97759453609
          0.962916912 1.0262632627 1.0420826356 1.0155498541 0.99603057826 0.9857042555
          1.0965988176 0.99690446655 1.2180607858 1.2028109579 1.2436066367 1.231008007
          1.2685391068 1.2561829043 1.2996991644 1.2808671352 1.3409587303 1.3128236695
          1.3639942181 1.2746899009 1.2870724621 1.2499154175 1.2623863834 1.2246540284
          1.237308232 1.1933675936 1.2109140733 1.0379138067 1.1558336599 0.99421908354
          1.0080482207 0.99012274632 0.98235291486 1.0182087221 1.0024088178 1.1717351709
          1.0337075019 1.3518541542 1.2179545337 1.0802803713 1.5042342457 1.3598318563
          1.2596825753 1.0484647673 1.0573091241 1.5642325184 1.2765425546 1.4480947821
          1.0886622531 1.118254769 0.97311458243 1.0631770781 1.3898154953 1.3994336364
          0.96916741633 1.4097884581 1.4211135702 0.96672835486 0.96591615425 1.3265724423
          1.5113098114 1.4652953715 1.4860364713 1.1180613935 1.287895237 1.4336707256
          0.98484606864 1.622792902 1.4799718037 1.2111875496 1.1235175551 1.05773651
          1.1330974868 1.659177798 1.7018918461 1.0646871836 1.2064647759 1.3164441399
          1.5241611947 1.0009338944 1.1960861273 1.2471041225 1.4068770742 1.0567141305
          1.2812532821 1.2699062698 1.1914323805 1.6902992087 1.0881487958 1.4458988132
          1.3567927489 1.1235677475 1.2150201772 1.1629129025 1.0553182349 1.2063999203
          1.0522382076 1.3042097712 1.2526875686 1.4543452965 1.3280751688 1.1337169038
          1.2669285639 1.0756672103 1.1723363322 1.0278484705 1.2852743582 1.4041771596
          0.97430072169 0.99062328653 1.3454108658 1.2914325377 1.4146779656 1.3528785421
          1.3853794983 0.99144272376 0.97538804254 0.99545506271 1.0884050027 1.1823327687
          1.0944005943 1.4082122302 1.0458488079 1.1889359342 1.3685067597 1.4260408376
          1.2976805492 1.1156636123 1.5318165263 1.4546061566 1.43873826 1.5039993447
          1.6081362237 1.5667399508 1.7244993152 1.719640143 1.4110630153 1.5349682535
          1.2397155143 1.4573531427 1.4286404424 0.97378073869 1.0640277733 1.3973379835
          1.2925625365 1.004094916 1.4173023717 1.7202063511 1.0532778184 0.97138476006
          1.2756065628 0.9815736989 1.2868946823 1.298317337 1.2224757872 1.3102489224
          1.3227714854 1.342639861 1.3505466417 1.3496165039 1.3642021167 1.3883507707
          1.1428007556 1.2355214994 1.2414592476 1.4413732232 1.0566601223 1.0575570538
          1.0584323162 1.3795011137 1.0515659558 1.0514755892 1.0550544462 1.3002435262
          1.3292363533 1.335855314 1.1326034274 1.1776385614 1.0659907569 1.0861020492
          1.3718905579 1.3799068855 1.222470611 1.229241749 1.165077055 1.1536116502
          1.0689081145 1.0748423689 1.2784772193 1.2584087847 1.483608944 1.0538390856
          1.0529547366 1.1082159551 1.1011475814 1.0823558524 1.0772026936 1.0615187585
          1.0588293349 1.0725645741 1.716852804 1.6100027036 1.2110238738 1.3945218467
          0.99340404685 0.98840265007 0.98644650942 0.98427790544 1.376745624 1.3605650436
          1.3171994424 0.98143314908 0.97806412534 0.97113651796 1.3105431083 1.338126422
          1.150318182 1.168896999 0.9878827859 0.98439202631 1.0369329301 1.0543801838
          1.0641934339 1.2420586315 1.2165276113 1.2090989679 1.2358132139 1.2608304629
          1.3040388268 1.2791459146 1.27301169 1.2546321269 1.2483662751 1.2295552741
          1.2232097454 1.2004794957 1.1894298536 1.0666338977 1.0267989096 0.99941346501
          0.99663620771 1.0141881707 1.0085794617 1.0000868369 1.005485653 1.0121593248
          1.0199598747 1.3662228552 1.2356606204 1.2633871999 1.2583862874 1.2641366166
          1.0605389796 1.062528772 1.5560218058 1.2940985911 1.1021505123 1.1170344566
          0.97698763403 0.97904087388 0.97138999493 0.97331853079 1.3310031952 1.3240244047
          1.1073152065 1.1355767233 1.3241055444 1.6516016206 1.0684589434 1.6994339089
          1.0586290002 1.0726208861 1.2516458291 1.0675059721 1.3208088234 1.4085055651
          1.3988563041 1.3573468927 1.5483133797 1.4188155049 1.4727131243 1.5116008034
          1.4459632344 1.5303904354 1.4196944353 1.7028536098 1.2031074733 1.3271293243
          1.4112060908 1.0039915779 1.4756998112 1.5601155926 1.2134838537 1.6337844319
          1.2211277724 1.4517897009 1.2912554558 1.5225172288 1.0641994349 1.2857176465
          1.2038713133 1.4214630088 1.4863635627 1.3811474371 0.99713107043 1.3426222302
          1.1070414706 1.4302744345 0.99477721111 0.99398796663 0.98395719327 1.0482786503
          1.1672431025 1.4928218586 1.6674422531 1.6364408161 1.3792961463 1.6795153213
          1.3611490362 1.2183655299 1.7145369379 1.1343469961 1.0615175338 1.389919348
          1.4593907843 1.2656404819 1.240661923 1.1571909327 1.3898253591 1.3498917755
          1.2959120597 1.2897869116 0.98568263449 0.99089278044 1.0059835272 1.1029915737
          1.1750455102 1.1921765169 1.1036196293 1.4180983823 1.0586553937 1.3729313755
          1.4433204096 1.503264441 1.5929187517 1.5977431389 1.7115877765 1.3618425778
          1.5149114764 1.4960437851 1.3685492552 1.4016499639 1.0070505607 1.0606794152
          0.98005023136 1.2745561835 1.2801475507 1.2968516586 1.3026068329 1.2522872181
          1.2347903589 1.3085051084 1.3145932492 1.3470074907 1.3539863208 1.3927485427
          1.2407476531 1.2463774994 1.4329235907 1.0623516025 1.0628198536 1.0576598331
          1.0590102832 1.3363483073 1.3335842756 1.3402002992 1.153242038 1.142947084
          1.0693639671 1.0713933483 1.3762249587 1.3842391679 1.228277239 1.2346401472
          1.1891303485 1.176569762 1.1648738511 1.0760486334 1.0834983317 1.3130712988
          1.2914490105 1.2711257718 1.0623913286 1.0609932049 1.0598210027 1.1260260733
          1.1181542616 1.1105891559 1.0970293128 1.0911465628 1.0692685924 1.0664828604
          1.0857407943 1.2294540624 0.99285709386 0.99110652179 1.3650182214 0.98902610053
          0.98599894536 0.98198149564 0.98035163742 1.314984409 1.1865194141 1.2071753892
          0.99754557915 1.0016155727 1.0687707138 1.0782903709 1.0897203306 1.2152276614
          1.3084831172 1.3021237058 1.2837632339 1.2777037867 1.2715550565 1.2595862907
          1.2533221952 1.2470801709 1.2346353909 1.2282987055 1.2221224943 1.2075867231
          1.1977079279 1.1835624323 1.0454725709 1.0025651331 0.99989727123 1.0237773356
          1.0149566544 1.0112235217 1.0113479683 1.016994657 1.0232060104 1.0313832388
          1.0400138143 1.2538445902 1.2810302914 1.2573612445 1.2630174485 1.2688571178
          1.0647008083 1.0665832902 1.3113031153 1.343761251 1.1173213194 1.1326163946
          1.1492541871 0.98794330721 0.97939085974 0.97965627494 0.98226057682 1.3355137937
          1.3285280068 1.3216775814 1.1004040806 1.1236207675 1.153262413 1.0809486021
          1.0764387369 1.6748238385 1.2153920054 1.4322621469 1.3852870964 1.0725284332
          1.6798606745 1.4565058554 1.3253045463 1.3315383927 1.3719380391 1.4119847453
          0.99962967257 1.6454704366 1.4256714858 1.5521534448 1.3543404528 1.4222291019
          1.6152822906 1.0799383419 1.5783707937 1.5131213449 1.515174247 1.2562417005
          1.1462644144 1.4267956087 1.0649552603 1.2308999294 1.0675621082 1.0813831413
          1.3937873397 1.0080816941 1.3471108315 1.3400584822 1.2397641881 1.0713040783
          1.0081940423 1.4054195245 1.204628285 1.2903341162 1.453872087 1.4026291102
          1.4348625034 1.3727494442 1.4558442219 1.2113637893 1.5850718225 1.2205059486
          1.2270838356 1.4871774771 1.4146972634 1.519361106 1.2644785709 1.0008892999
          0.99771384953 1.6537598522 1.4625487603 1.1373350728 1.2944507189 0.99526680635
          1.0008155701 1.004436856 1.1858821676 1.2017605314 1.3771139242 1.5007892643
          1.5399771987 1.6164243294 1.6915412743 1.3985431832 1.3654234449 1.396686506
          1.0105223907 1.2793638732 1.2849235055 1.295634978 1.3012812734 1.2651216763
          1.2475074333 1.3069457485 1.3129578124 1.319074398 1.3514173994 1.3583293798
          1.2458654709 1.2511285989 1.4248816947 1.0680695854 1.0679372727 1.0658074106
          1.0674256184 1.3379340165 1.3446258996 1.1641223122 1.1549314127 1.0751771879
          1.3803354371 1.388329684 1.2342009683 1.2405728782 1.2014122113 1.189278247
          1.1767829146 1.0778492138 1.0841867003 1.3479846803 1.3253889545 1.3040228541
          1.2839284782 1.0723266895 1.0704585866 1.0686639702 1.0670964917 1.1372249987
          1.1289757553 1.1209842986 1.1137441024 1.1069010954 1.0749218506 1.0777646086
          1.1008510649 0.99827164065 1.3693143786 1.3617329559 0.99667356374 0.99443697611
          0.9906572173 0.9890148092 0.98979256114 1.2254215308 1.247686225 1.0126008033
          1.0174818306 1.0840216755 1.094561271 1.1049894755 1.1186101267 1.312942721
          1.3066910651 1.3004364078 1.2884129121 1.2826717138 1.2766147397 1.2703079989
          1.2588603604 1.2522886281 1.2456510958 1.2334539673 1.2276238058 1.2210658637
          1.2147567535 1.2054461172 1.1957898263 1.1713875158 1.0043681353 1.0056790814
          1.0369237023 1.0237560681 1.0182489976 1.0139565639 1.0232738475 1.0295453458
          1.0362894902 1.0438109729 1.0530717606 1.0623017679 1.271676186 1.2975445646
          1.2621574182 1.268142357 1.2739001349 1.0693860285 1.070652916 1.072139156
          1.3266487346 1.3578124311 1.3902790532 1.1337052246 1.1494214074 1.1661300882
          1.1846454826 0.98946397679 0.98860119592 0.98944488608 0.99288741992 1.3195199385
          1.3331215206 1.3262216262 1.0958631138 1.1153447956 1.1412644711 1.1677801777
          1.0951908013 1.0899731069 1.0852956672 1.4858736598 1.4270724332 1.3694498464
          1.4991452409 1.5146041562 1.2300705778 1.2276924511 1.5431539496 1.3808967909
          1.5991134032 1.4050284595 1.1584212628 1.0992932604 1.4636416934 1.5639543697
          1.6540298011 1.6954779931 1.6974456216 1.6866059061 1.6243978885 1.4296619515
          1.0082577371 1.376598551 1.4084074244 1.3356424935 1.258292522 1.0731324109
          1.4146283716 1.3173378279 1.3377550023 1.0116350265 1.0076186249 1.088958927
          1.2358645732 1.005656955 1.0784596584 1.0031820225 1.4056341037 1.2434855421
          1.4776457556 1.3888535468 1.690065073 1.5018249668 1.4803701285 1.3296028012
          1.3807671015 1.6500641557 1.4306851958 1.5716974149 1.3515313829 1.5956019905
          1.5033504008 1.5042200638 1.4581282515 1.0851945513 1.0906999783 1.3970610868
          1.0150418236 1.3445108563 1.3999389954 1.2147927185 1.6284624033 1.0093773639
          1.0153747086 1.0173616856 1.1884023729 1.4969161946 1.530706635 1.6679244571
          1.4316181427 1.2846008451 1.2895805575 1.2948044601 1.2999673407 1.2604196578
          1.2775541315 1.3057142598 1.3112533702 1.3174696452 1.3239375547 1.3557478536
          1.3625052177 1.2487650248 1.4173066996 1.0736354428 1.0746190913 1.0738160636
          1.0750655515 1.3425035583 1.3491301902 1.1755574787 1.1648407259 1.3840599936
          1.3918596322 1.2406707111 1.213328512 1.1989267976 1.1892604707 1.0845138834
          1.3583068251 1.3363593296 1.3158880955 1.2966163292 1.0838597667 1.0794955171
          1.0789717354 1.0753002446 1.0744055636 1.1461950862 1.1403436502 1.129474762
          1.1245142554 1.1151489658 1.3732470649 1.3658724536 1.3586473429 1.0033549752
          1.0026957241 0.99862569379 0.99828375766 0.99777597772 1.2433259957 1.2647755658
          1.0244593544 1.027198269 1.1078839207 1.1207397202 1.1346247313 1.311245357
          1.304950411 1.2991264818 1.2930210756 1.2874904109 1.2818456822 1.2754744832
          1.2668129864 1.2581907696 1.2477327739 1.2240695971 1.2097737914 1.1712846738
          1.0327083102 1.0199210615 1.0360181494 1.0399029249 1.0503250566 1.0549811083
          1.0652379948 1.07775386 1.0872050701 1.2883077575 1.3127611542 1.2674753564
          1.2733751318 1.2788736309 1.0747673576 1.0763791777 1.3396196655 1.3692787617
          1.3991596413 1.15077831 1.1671829646 1.1836538866 1.2016766899 1.2229085709
          0.99963716196 0.99771099131 0.99894448249 1.0013946868 1.3310367604 1.3239977364
          1.1035158316 1.1448032548 1.1112604521 1.1029718803 1.0996424359 1.0929588233
          1.4671578142 1.4644002962 1.5334587588 1.6650093691 1.4996537525 1.3798968484
          1.399673241 1.6046356349 1.3557763351 1.435204923 1.3946481174 1.6433157042
          1.4099804452 1.5083618644 1.0155455857 1.4978323286 1.4919851125 1.5769835315
          1.4830453697 1.372977198 1.0841618795 1.3916963619 1.096865201 1.3399418664
          1.3309464956 1.1293982145 1.2391695756 1.1635363208 1.6039152445 1.0818205588
          1.2735940691 1.2555922412 1.1296879506 1.3766252141 1.3183759811 1.62823879
          1.4628212705 1.3662922341 1.489163187 1.3840044152 1.6892341307 1.62580958
          1.4024894753 1.2393372896 1.0144974521 1.0108956334 1.4081116398 1.4945181389
          1.4326898044 1.6719890353 1.4918458854 1.3884030718 1.5818190228 1.5581240225
          1.0203335113 1.4340446968 1.3489368308 1.3418935872 1.0176481219 1.0230874411
          1.0321424708 1.2272677636 1.5211015249 1.5496517922 1.458634314 1.2919878192
          1.301601044 1.2901262559 1.3126004072 1.3223941668 1.3597708066 1.4108070493
          1.0816105477 1.3472623991 1.353422733 1.181811941 1.3871075203 1.2483464816
          1.2565839184 1.2181641679 1.2004658515 1.0880238798 1.366634372 1.3441841905
          1.3234147977 1.3093302615 1.0902481261 1.0852052603 1.0827390698 1.1455277939
          1.1300060482 1.3695129563 1.3625984913 1.0078533943 1.0079880782 1.2786926865
          1.0436028325 1.1501449931 1.2560521644 1.3064011535 1.2947226547 1.2838197815
          1.2741778945 1.265625596 1.2447077266 1.2332462717 1.221923704 1.2009060542
          1.1408414957 1.0641712415 1.0324282574 1.0240984758 1.0579051637 1.0728034132
          1.0914003104 1.1012907247 1.1147117817 1.3030008069 1.3265914966 1.2659694181
          1.2755874651 1.2841973302 1.0820471544 1.0828896795 1.350748983 1.37792944
          1.4058540262 1.4337640291 1.1679476697 1.1856874494 1.2019412124 1.2190045765
          1.2410591375 1.2559754463 1.0087739568 1.0113332752 1.335673315 1.3288102245
          1.0998422835 1.1734204618 1.2081794729 1.1166751005 1.1055516355 1.4153222343
          1.4709535165 1.4621948847 1.4397633718 1.342778166 1.4027875781 1.4924150518
          1.4292431827 1.544632266 1.4791526884 1.4422770747 1.4179129156 1.511389427
          1.6040716476 1.6191367596 1.365871729 1.2472658528 1.027780733 1.4267278966
          1.3195676772 1.4347741043 1.2820529703 1.4863642896 1.5233529039 1.0923781466
          1.3448726902 1.1573705376 1.0925431548 1.3758051801 1.38242889 1.4141846606
          1.394622613 1.4902402391 1.3863580178 1.3942291028 1.3532076595 1.0446112492
          1.0291473416 1.2225565161 1.2989932744 1.459601798 1.4683637603 1.6694446561
          1.3694066016 1.3594734588 1.4934570928 1.389368664 1.5832207058 1.5012702973
          1.0903269202 1.6033290232 1.2865756572 1.2670949101 1.3792468333 1.641955983
          1.363198177 1.3970537651 1.2370196688 1.6522979614 1.4924958806 1.3182055265
          1.584399478 1.5650337593 1.0243608105 1.4573397268 1.3458005098 1.0265077383
          1.0354868469 1.034169606 1.5358653029 1.5595704701 1.2992584637 1.3091523635
          1.3285182161 1.3368899107 1.4054708473 1.0916460099 1.3512143874 1.3571263587
          1.0950029393 1.2737981678 1.2829330573 1.2556788894 1.2491598375 1.2292135802
          1.2102700947 1.3717103404 1.1066010781 1.0999626466 1.192127572 1.1731743726
          1.1970818284 1.3724498991 1.0217324125 1.019438756 1.16482152 1.3142680123
          1.3027269722 1.2638087424 1.2917853588 1.281743156 1.2727956985 1.2532322232
          1.241776916 1.2304838902 1.2164466372 1.1821416316 1.1106072686 1.0517130965
          1.0563096068 1.0708900076 1.0868790044 1.1041047966 1.1226298582 1.1452871662
          1.3144693794 1.3385952918 1.264268563 1.2909415559 1.0910357844 1.0903996043
          1.3605724199 1.3844983389 1.410299295 1.4353919654 1.4608022057 1.1840590163
          1.2044312862 1.220556145 1.2365250426 1.2566741646 1.0193755979 1.0210433203
          1.023047833 1.3362145984 1.3254750733 1.0997839561 1.1197824395 1.1551585009
          1.1395882765 1.1261722769 1.1152092828 1.4625975199 1.4503184547 1.4424300063
          1.4217586015 1.5637170532 1.4477388451 1.5226990616 1.3486732514 1.4893023259
          1.412478015 1.4107368559 1.3658350985 1.4814317676 1.3622395771 1.0681296053
          1.4332374069 1.4388276311 1.4742393833 1.4876172421 1.4804150581 1.2197626209
          1.3477401309 1.3256525616 1.2548938423 1.4243534963 1.4363933749 1.4308013586
          1.4838409477 1.5314919439 1.0357668054 1.1848260995 1.1020751781 1.0385814256
          1.3213622138 1.2994043843 1.0474380902 1.322268769 1.0978683884 1.5018526121
          1.3887980678 1.0986369763 1.4398054042 1.409887104 1.4081976369 1.4650744654
          1.582235968 1.0399687453 1.485822533 1.4862495785 1.4544689226 1.4937057094
          1.1045744458 1.3717576085 1.3778018416 1.4331261491 1.415072581 1.4732296346
          1.3683274367 1.3563645482 1.056563041 1.2157846067 1.3186805397 1.3845578267
          1.513176983 1.5967851106 1.296837083 1.2776738655 1.3815185626 1.6182235881
          1.6617188722 1.3916476337 1.2340146437 1.2457388318 1.6524895696 1.6267610627
          1.4756687284 1.5824855197 1.5660186371 1.5489776186 1.0340396204 1.3499623576
          1.5433574302 1.3062857016 1.3161808648 1.33400444 1.3418499934 1.3544151976
          1.3600966193 1.2815004042 1.2722587306 1.258261556 1.2386507924 1.3991152531
          1.3735469315 1.1157268271 1.1091681783 1.2006589654 1.37454599 1.0323387699
          1.0302360318 1.3102709347 1.2894348976 1.2801557543 1.2713116147 1.2616402932
          1.2506220241 1.2390722078 1.2265503598 1.207009183 1.1607461691 1.0887425051
          1.0473632087 1.0826583303 1.137834739 1.1584263124 1.099324042 1.1176355685
          1.17908147 1.3478836119 1.2633086451 1.2897181743 1.2975670943 1.1011904298
          1.0998501377 1.3689783246 1.3898743861 1.4129090809 1.4356402876 1.4579912237
          1.199328243 1.2217191632 1.2341546424 1.251232796 1.2712287872 1.294375611
          1.0302057129 1.0320955815 1.0349935934 1.3417217772 1.3319588918 1.1029595481
          1.1158008727 1.1453095649 1.181431138 1.1636488078 1.1481385025 1.1349325836
          1.1242222563 1.5623139655 1.4552503781 1.3848145884 1.5337328329 1.4149677041
          1.3642887641 1.0527163668 1.2802342711 1.4683339092 1.4750827134 1.3277978721
          1.4527163404 1.6318728668 1.4283659947 1.4590446284 1.2712506694 1.5962868501
          1.4699163699 1.4423250257 1.5188583277 1.2626398721 1.1119219662 1.3515364716
          1.2289185525 1.1145512577 1.3586291989 1.31742699 1.0439970005 1.0952198802
          1.3225865908 1.4741753647 1.1121615302 1.0453707225 1.4565476627 1.4259287683
          1.4447354876 1.41746436 1.4012299742 1.4674970803 1.4208733074 1.4818458623
          1.4360862499 1.4772889787 1.4857426798 1.4836061497 1.4846747753 1.4797785947
          1.4838928958 1.3068889847 1.0604634514 1.4926401272 1.51024761 1.1062945148
          1.3938714051 1.3985719546 1.4233718972 1.4337457685 1.5029684785 1.3678021981
          1.3737830695 1.4497357532 1.4247203588 1.3743074694 1.0696765503 1.0810309269
          1.2078515015 1.3796864658 1.3501798484 1.3264011828 1.3061163082 1.6057911556
          1.3876836118 1.3965759429 1.2299594749 1.2437764311 1.2539243348 1.6342061641
          1.576083279 1.5631680376 1.5487025566 1.3527858839 1.5281724385 1.5458662539
          1.3132921161 1.3311008312 1.3388305344 1.3457626588 1.3568946518 1.3623156532
          1.2868157431 1.2671074052 1.2480529332 1.3991825265 1.1254648022 1.1190709881
          1.376578438 1.3704719876 1.0429700305 1.0418988588 1.2969584986 1.2876661253
          1.2787528383 1.2696578395 1.2594587473 1.2481181019 1.2358207149 1.2207444081
          1.1956445618 1.1404451866 1.0749361158 1.0488484841 1.1724203421 1.1311796728
          1.151891196 1.1928472267 1.3537965572 1.2887027224 1.2963217355 1.3043206128
          1.109177466 1.1082237066 1.3754982074 1.3941473249 1.4142826159 1.4346623145
          1.454473835 1.2141533181 1.2362551866 1.2579665651 1.2836178995 1.3048689976
          1.3288428697 1.0416074866 1.0437026159 1.0471258221 1.3458272407 1.3374477789
          1.1086315702 1.1163561609 1.1377386689 1.1736853864 1.2092809163 1.1900926767
          1.1725263171 1.1571999932 1.1443296621 1.1338502167 1.431118902 1.3920586138
          1.3604531381 1.5756157617 1.6092161257 1.3640415977 1.1998518653 1.2792759261
          1.0740776935 1.3804351979 1.440608707 1.4465508799 1.449056504 1.481010475
          1.3971474658 1.4287810964 1.4787629834 1.3138944748 1.4190163672 1.3977385409
          1.4030251589 1.4794377754 1.3196896771 1.2877684956 1.5853658086 1.4774243922
          1.3577776893 1.1448091168 1.4055822165 1.3331979527 1.2705869883 1.2571150215
          1.3834145136 1.4614305567 1.1195154993 1.3662054294 1.0542901293 1.3535461822
          1.1164980292 1.4675863036 1.1870203363 1.2378009682 1.1245314481 1.0657791522
          1.5194184679 1.5066914217 1.4686515824 1.6181261544 1.323774653 1.1254378926
          1.4709040035 1.4214387228 1.4926988631 1.4743281096 1.4382796179 1.4782263745
          1.4762173988 1.4836889696 1.498627267 1.3893577713 1.3695901347 1.2757153907
          1.0839271594 1.0952072251 1.1087260403 1.3745678988 1.352868608 1.3329754423
          1.3757502723 1.4002690643 1.225276132 1.2413186107 1.2527012392 1.2619923353
          1.6132897022 1.5323549969 1.5568747924 1.5451130349 1.3547540825 1.5139410871
          1.5293062908 1.543984708 1.3280785197 1.3357362335 1.3426002119 1.348469405
          1.3586656242 1.3140746772 1.2947517996 1.4428609682 1.4205253245 1.1358737536
          1.1294662644 1.3726425994 1.0538554289 1.0537063661 1.3042118548 1.2950435923
          1.2861956513 1.2773594741 1.2679221326 1.2572837686 1.2453784684 1.2316745851
          1.2140730076 1.1835610775 1.1231828064 1.0692044064 1.0546111434 1.1659463434
          1.2068788557 1.2273569259 1.3110277101 1.2954243359 1.302878176 1.1169634107
          1.3792042312 1.3972777003 1.4145491529 1.4327105526 1.4502867519 1.2496785988
          1.2939488593 1.3139171341 1.2724723927 1.3353253461 1.0541711673 1.0558477467
          1.0598592054 1.3486841148 1.3416109822 1.1205618805 1.1348280251 1.1647940243
          1.2180522572 1.1990575395 1.1817781831 1.1668291702 1.1543706956 1.1441110211
          1.2464335136 1.4629505478 1.4333536854 1.4373946672 1.473604283 1.4141367917
          1.30923023 1.4652501288 1.356483665 1.265685603 1.4015982699 1.4060997685
          1.4165668296 1.4709195559 1.4453451305 1.425771523 1.4234004274 1.5170581574
          1.4766884434 1.1797233526 1.394658031 1.3018190491 1.286951223 1.5007267321
          1.0632004322 1.0986407114 1.3250738415 1.2204750242 1.1399634281 1.3805133829
          1.2834628993 1.2838679428 1.3624911679 1.3674109643 1.5882202394 1.4154055875
          1.1924401124 1.2785904344 1.0879301225 1.4467809569 1.4491453505 1.4777766453
          1.4311286629 1.4351664517 1.4599685926 1.3926936568 1.457606192 1.2946616196
          1.3171426479 1.5661013954 1.1584367239 1.3952514806 1.3200124746 1.3863046254
          1.4686472723 1.1269013807 1.0796128926 1.2012584882 1.4823142029 1.4430644891
          1.5980033202 1.5992299497 1.3290312814 1.5059940218 1.4949027188 1.4688732824
          1.4725828737 1.4721327488 1.474848972 1.4877440192 1.3835172111 1.1107457018
          1.1233683584 1.139165529 1.3746898294 1.3562091566 1.365919181 1.3706264485
          1.4085661922 1.403956825 1.2386327978 1.2512629775 1.2612697763 1.2700793565