<?xml version="1.0"?>
<VTKFile type="UnstructuredGrid" version="0.1" byte_order="LittleEndian" header_type="UInt32" compressor="vtkZLibDataCompressor">
  <UnstructuredGrid>
    <Piece NumberOfPoints="5233" NumberOfCells="10216">
      <PointData>
        <DataArray type="Float64" Name="E(Ï)" format="ascii" RangeMin="0.82078778367" RangeMax="1.7653096736">
          1.5017439048 1.477768252 1.4592429558 1.4440688523 1.4310972374 1.4196959952
          1.4094147079 1.3999880991 1.3912170612 1.3829887114 1.3751769661 1.3677026044
          1.3605119549 1.353564313 1.3468264987 1.340282687 1.33390789 1.3276949227
          1.32163458 1.3157231108 1.3099613752 1.3043420515 1.2988417154 1.2934320131
          1.2880703689 1.282723686 1.2773724044 1.2720303228 1.2667314602 1.2615132796
          1.2563440446 1.2511548473 1.2458993004 1.2405695108 1.2352078296 1.2298394078
          1.2244939195 1.2191526316 1.2138265873 1.2084992968 1.2032025341 1.1979471164
          1.1928049263 1.1878632913 1.1833016725 1.1792912789 1.176473703 1.177205274
          1.1633175447 1.1348889793 1.1345842278 1.1005206226 1.0616779914 1.0561771492
          1.0541435118 1.0456443676 1.028128022 1.0151744862 1.0101234603 1.0076789565
          1.0066513989 1.0067274055 1.0080118278 1.0102962787 1.0130856158 1.0170645188
          1.0216797029 1.027340056 1.0332631851 1.0399931913 1.0468685357 1.0539252253
          1.0612947409 1.0702314777 1.0804887149 1.0911288575 1.1021451833 1.114048917
          1.1271186564 1.1412993297 1.156490533 1.1726549325 1.1898938706 1.2083452221
          1.2282250177 1.2500029384 1.2740572968 1.3007631811 1.3305955129 1.3641691014
          1.4020506587 1.4449594943 1.4931281031 1.546468272 1.6037192042 1.6616575248
          1.7142029664 1.755691717 1.7653096736 1.7546160592 1.7517644018 1.7212097208
          1.6552287583 1.5817966355 1.5075284726 1.4383436458 1.3767096233 1.3230419165
          1.2766385879 1.236660789 1.2019728954 1.1717033106 1.1449796572 1.1211924748
          1.1000497834 1.0812376433 1.0640415314 1.0477427682 1.0320237827 1.0168333891
          1.0025765073 0.98948450122 0.97710543567 0.96517700396 0.95431675921 0.94681182524
          0.93849747015 0.92674055137 0.91949619132 0.91404029438 0.90595094688 0.89765076134
          0.89082559466 0.88441120776 0.87814212228 0.87207958205 0.86623398233 0.86067098125
          0.85536411622 0.85025913392 0.84545734806 0.84091309641 0.83677061419 0.83379270416
          0.83093591924 0.82854431302 0.82667495052 0.82523461375 0.8240103171 0.82283448246
          0.82155864112 0.82099198306 0.82078778367 0.82112093368 0.82174272365 1.0582799888
          1.0610025147 1.0630783724 1.065321363 1.0876984881 1.1834251548 1.2016797289
          1.2498278135 1.2584644991 1.2514305804 1.252772991 1.2553217004 1.2582511243
          1.261516458 1.2650949246 1.2689388292 1.2730043978 1.2772408181 1.2816219612
          1.2861420859 1.290803232 1.2956070025 1.3005569756 1.3056613506 1.3109407378
          1.3164095905 1.322075684 1.3279439767 1.334014245 1.3402793175 1.3467532109
          1.3534456501 1.3603862032 1.3676095755 1.3751613173 1.3831126961 1.3915802136
          1.4006699178 1.4105665241 1.4215135903 1.4339207847 1.4483195984 1.4655902181
          1.4870959846 1.52707788 1.2884119816 1.2883521813 1.288356623 1.28833189
          1.288121418 1.288056991 1.2886025896 1.2881767412 1.2886025896 1.2884909067
          1.2886107173 1.2886221554 1.2886136479 1.2886025896 1.2886025896 1.2886025896
          1.2886025896 1.2886025896 1.2886025896 1.2886025896 1.2886025896 1.2886025896
          1.2886025896 1.2886025896 1.2886025896 1.2886025896 1.2886025896 1.2886025896
          1.2886025896 1.2886025896 1.2886025896 1.2886025896 1.2886025896 1.2886025896
          1.2886025896 1.2886034361 1.2886069079 1.288642646 1.2886732444 1.2887314159
          1.2888431317 1.2890156985 1.2886025896 1.2890591641 1.2888939962 1.2888676375
          1.2888424941 1.2887246382 1.2886778345 1.2886174337 1.2109493536 1.2129940277
          0.83406887903 1.228267038 1.0248029803 1.4896948789 1.4694305217 1.2553128717
          1.2235657882 1.6737082726 1.244865032 0.95868183511 1.4267357163 1.4159159165
          1.1147484051 1.234194733 1.7276013784 1.4060744202 1.3969790308 1.7142916788
          1.2077236122 1.2761870454 1.2656090065 0.85321398102 1.2868541921 0.89462261012
          1.2975488637 1.3689289994 1.3085329386 1.1753845174 1.3200572332 1.7384694895
          1.3449282089 1.3321796981 1.3957945263 1.0585622144 1.2921842961 1.3584086614
          1.3884682719 1.3728071115 1.0735358912 1.3142198994 1.2501300009 1.4527174528
          1.1923250704 1.0612867788 1.177724081 1.1276791884 1.1498437854 1.1371102168
          1.1054883954 1.329355682 1.0415527214 1.2519155694 1.0548971609 1.0114711314
          1.0132478507 1.3009463741 1.0143594206 1.3384718364 1.0834146246 1.0504176186
          1.1592339827 1.130076787 1.1832941849 1.0652137821 1.1973337907 1.3029848186
          1.3608361346 1.43880693 1.5244966483 1.2778663739 1.3260451236 1.3515669609
          1.3804509008 1.6125292682 1.2815269407 1.0253018515 1.1796923648 1.2395358452
          1.2604452432 1.1172534684 1.0367429187 1.1875748326 1.2182710581 1.2306400132
          1.5742999671 1.4347245748 1.0164613323 1.0576969699 1.5146619008 1.0306793975
          1.1441007412 1.0123454623 1.0207607228 1.0803429646 1.228866575 1.7175078925
          1.6730871758 0.8239974615 1.7336494732 1.2071812085 1.1070315538 1.1514243962
          0.99441328127 0.83688518309 1.4423080682 0.82454618024 0.82835567213 1.3727695629
          1.3582835302 1.3044056702 0.82694533194 0.83175974461 0.8437960458 1.3263352025
          1.314979871 1.0535889623 1.3805258637 1.351461209 1.338495632 1.0220062435
          1.0881046679 0.8753896962 0.88799858205 0.94124278685 0.86380063997 0.82989905709
          0.84011625253 0.96030446339 0.98168251774 1.067949869 0.92500301329 0.90921354654
          1.1440798519 0.82424763815 1.2551369088 1.2512691365 1.2682468805 1.2610500576
          1.2851684514 1.2764005641 1.3096000414 1.2945028605 1.3448723058 1.3205571458
          1.3653732472 1.2897628559 1.2993798906 1.2722317188 1.2807169646 1.2579246094
          1.264506022 1.2588438396 1.2526912335 1.0672536288 1.2003069029 0.82392745731
          1.0433812178 0.91764150243 0.90152665032 0.95184836154 0.93171469278 1.127961396
          0.96981147919 1.3205860707 1.1777455729 1.0433180392 1.4833475569 1.3654756344
          1.2708674118 1.0117286458 1.1781145106 1.5475654589 1.2403218902 1.4233053016
          1.0373776154 1.0704326156 0.88157748787 1.0077585253 1.3887532999 1.397536228
          0.86946250213 1.4070272621 1.41744047 0.85837360457 0.84832990353 1.3323183368
          1.5004979321 1.4581269029 1.4770348331 1.20249857 1.2752317424 1.4290246794
          0.82553594059 1.6250598774 1.4776694809 1.1925660025 1.0942904639 1.0171455096
          1.0860320077 1.6408206932 1.6860430906 1.0246528375 1.2285682519 1.3245228145
          1.5181152241 0.82942350307 1.2233610419 1.2598768197 1.4114229607 1.0193977932
          1.2912813823 1.2807199618 1.1693724656 1.6813382794 1.0512923109 1.438510689
          1.3631156434 1.0921080353 1.2338158587 1.2129753161 1.0708477567 1.185883807
          1.0390256932 1.3129107021 1.2649256875 1.4278513141 1.2949608645 1.1886878553
          1.2845132827 1.0204735592 1.2119926817 0.96035300189 1.2984439029 1.4026915234
          0.86470384179 0.83068046591 1.3493440885 1.3033511544 1.4124154665 1.3559918341
          1.3854076943 0.90988363403 0.87030060472 0.91774781434 1.035436781 1.2181517165
          1.0584489045 1.3794660445 0.98247243851 1.1462763399 1.3700494041 1.4229811848
          1.308423751 1.0828069447 1.5214366064 1.4495790774 1.4348170485 1.4797081077
          1.5878009206 1.5607748209 1.7143430215 1.7091866536 1.4026412316 1.5312408566
          1.2221167482 1.4602779832 1.4325074896 0.84286324954 1.1814091528 1.402199307
          1.3019032862 1.0088371757 1.4215164346 1.7102025175 1.0651287111 0.84617841389
          1.2860123216 0.88885974319 1.2965692907 1.3073353807 1.2034418779 1.3186370339
          1.3305463245 1.3495352365 1.3396978228 1.3562245638 1.3702406661 1.3935186501
          1.1148818745 1.2496628561 1.2548374614 1.4448540948 1.1108293084 1.1411713652
          1.1403750081 1.3699049485 1.0554638486 1.0623502472 1.0199615675 1.2867304514
          1.3367136822 1.3430401115 1.1029671841 1.1539955904 1.1844929183 1.1976888256
          1.3776432245 1.3853705592 1.2390890432 1.2444065131 1.1398990162 1.1270564103
          1.1883792932 1.1928809848 1.263618858 1.2422021245 1.4770464672 1.0217691159
          1.0265516595 1.0742032099 1.0662224383 1.0443555762 1.0383468732 1.0219085616
          1.0201214367 1.032844889 1.7040469812 1.603565782 1.1700761206 1.3937933549
          0.82963849665 0.83179658503 0.83361816312 0.83550866347 1.3775278961 1.3628832015
          1.3247653023 0.83762436373 0.8400187185 0.85028698909 1.3191184954 1.3429100569
          1.1048103694 1.1247554363 0.90257746344 0.89555379438 0.97173984005 0.99311529442
          1.0062173102 1.2679324756 1.2554475496 1.2529976136 1.2643204684 1.2801604781
          1.3136715911 1.2936666119 1.2890069037 1.2759211459 1.2718311947 1.2610130559
          1.258065382 1.2505433818 1.2534022273 1.1051538683 1.0681369969 0.82902058093
          0.82920432736 1.0733998428 1.1041202892 0.9255744613 0.93375710174 0.942858886
          0.95180439698 1.3352693572 1.1965839807 1.2262560319 1.2701199764 1.2753950514
          1.1700528797 1.1818393652 1.5337961292 1.2589229713 1.0511878677 1.0680990053
          0.87625624156 0.88241308753 0.85434878438 0.85931321316 1.3366736168 1.3306222211
          1.2027103991 1.2078067906 1.3119368376 1.6440937532 1.0284702224 1.6887140199
          1.0544628933 1.0331168972 1.2641873499 1.1835028289 1.3287168753 1.4065500145
          1.3976653164 1.3599614597 1.5260507977 1.4160771024 1.4664259553 1.5028463502
          1.4491023859 1.5231184945 1.4100678151 1.6882800351 1.1806523489 1.334735229
          1.4155614993 0.83499576136 1.4779338447 1.5525630875 1.2336136763 1.6252075434
          1.2386260608 1.4430403127 1.30075782 1.5148761606 1.0283513687 1.2955605138
          1.2283236854 1.4254704807 1.4782976685 1.3814628807 0.83642180311 1.3468709102
          1.1531987816 1.4266574475 0.83778889281 0.90405938218 0.8776664441 0.98200135496
          1.1226083672 1.4851263948 1.6578234456 1.6176188662 1.3491491988 1.6626647599
          1.3673074588 1.1974467008 1.7022220709 1.1028641468 1.0934928908 1.3792826161
          1.4333025566 1.2838278411 1.2675321492 1.1974130624 1.3893854556 1.3533100296
          1.3070988249 1.3021732007 0.88377648841 0.8970164096 0.92738907097 1.050425372
          1.218117567 1.2233878652 1.0677821416 1.3899921216 0.99587309252 1.3740005255
          1.4388238206 1.4791488753 1.5723765925 1.5898811077 1.6998872899 1.3500850393
          1.5145146803 1.4972009094 1.3744233659 1.4063324146 0.83652804323 1.0733233119
          0.85321685923 1.2851589643 1.2903575352 1.3060272696 1.3114599657 1.2342328874
          1.2153354917 1.3170404331 1.3228124018 1.353736786 1.3604287766 1.3977415298
          1.2544788652 1.259463722 1.4365191577 1.1373867684 1.1427276496 1.0655363597
          1.0696509625 1.3233979292 1.3408960713 1.3472202934 1.1249561211 1.1128335894
          1.1860674248 1.1893242907 1.3818123291 1.3895345993 1.2440385735 1.2492289027
          1.1651276064 1.151178058 1.1382166942 1.1937652182 1.1981811385 1.2988940118
          1.2760248487 1.2544190018 1.0290313957 1.0316561851 1.0388539901 1.0932890001
          1.0842657138 1.0756178368 1.0601114079 1.0532313735 1.030505251 1.0287923091
          1.0469683133 1.1895013415 0.83914381233 0.84156193302 1.3668512421 0.84408332092
          0.84683211164 0.84978230443 0.85719870576 1.3229358532 1.1434381793 1.1655444123
          0.91138291368 0.91921710507 1.0078561046 1.0194497137 1.034288256 1.2560107192
          1.3174617444 1.3121794102 1.2974216422 1.292752645 1.2881437237 1.2795858936
          1.2753854081 1.271391955 1.2641597723 1.2609752432 1.2583507393 1.253887202
          1.2554203679 1.2371890397 1.075785869 0.83500119618 0.83565454375 1.0813894052
          1.1088094688 1.0772938507 0.93553304154 0.94330977786 0.95316669067 0.96447371773
          0.97281610606 1.2157450336 1.2449024474 1.2693672266 1.2745227033 1.2798878593
          1.1593233542 1.1858853443 1.2771464155 1.3115725234 1.0668993512 1.084060956
          1.1027096653 0.89032485671 0.86195417034 0.86632965245 0.87175133404 1.3406253095
          1.3345447051 1.3286417636 1.2032336222 1.2080050889 1.2132303403 1.0416317437
          1.036930909 1.6636714897 1.1926108383 1.4283041002 1.3851055946 1.1878540429
          1.6640969195 1.4592148184 1.3330297344 1.3389702507 1.3593395562 1.4095636703
          0.84624749648 1.635217104 1.3982849126 1.5432702096 1.3572136337 1.4190135876
          1.5962071509 1.114296814 1.5577843425 1.5048845317 1.512790251 1.2685322413
          1.1149426932 1.416091221 1.0672286943 1.2096590476 1.0852243456 1.0427424763
          1.3928620139 0.84185333923 1.350797572 1.3445845194 1.2674262972 1.0075883123
          0.92129256235 1.4099225147 1.162800327 1.2999956027 1.4486296666 1.4009613733
          1.4382847157 1.3784513957 1.4458851687 1.233354053 1.5760125974 1.238775327
          1.2435086674 1.4778088911 1.4188686562 1.510361753 1.2832597641 0.84309941613
          0.89912622626 1.6363252548 1.436982723 1.1836634615 1.306040176 0.89246745906
          0.90630325433 0.91358687401 1.2233231265 1.2287483309 1.3776820218 1.476981621
          1.517835352 1.6068941573 1.6794444363 1.3869480346 1.3714090311 1.4015028896
          0.84322050114 1.2897626562 1.2949337909 1.304971132 1.3102866227 1.2466753941
          1.2277072391 1.3156304883 1.3213175399 1.3271127186 1.3579693078 1.3645973392
          1.259244318 1.2639749807 1.4286808751 1.1239191497 1.1469597824 1.0744841688
          1.0784814178 1.3450737419 1.3514678261 1.1354205902 1.1248746412 1.1907214147
          1.3857504944 1.3934493467 1.2492248929 1.2546298279 1.1771935655 1.1639269587
          1.1499433399 1.1943757102 1.1993333733 1.3343212002 1.3106051954 1.2880876559
          1.2667822698 1.0380350772 1.0395732278 1.0427078118 1.0540608198 1.1048011128
          1.0951179176 1.0862746393 1.0778997354 1.0701414969 1.038668875 1.0399046577
          1.0630708795 0.84803358319 1.3706340818 1.3638188278 0.8512068089 0.85443100671
          0.85790079288 0.8614622656 0.86558803283 1.1850512312 1.2089142159 0.92941939733
          0.9380838816 1.0235120884 1.0361065488 1.0489915207 1.06630102 1.3212547873
          1.3160355345 1.3108891939 1.3012359876 1.2967529301 1.292147178 1.2874301711
          1.2794355613 1.275028265 1.2708964606 1.2640090666 1.2611009968 1.2587416804
          1.256885658 1.2545514179 1.2565406793 1.2181329503 0.84320353161 0.84109422673
          1.0795096669 1.0820269031 1.1355330738 0.98922104079 0.94664029647 0.95512548081
          0.96438836564 0.97592588743 0.98730763071 0.99650340372 1.2347231756 1.2625133021
          1.2739416879 1.2794029017 1.2847060782 1.149491952 1.1771161684 1.1900207528
          1.2935783354 1.3266462319 1.361000985 1.0841397876 1.1017094432 1.1202170526
          1.1408991714 0.86992651545 0.87544539301 0.88011992145 0.88595860305 1.3268191536
          1.3385230932 1.3325558644 1.2035727399 1.2089088927 1.2133560869 1.2187768777
          1.0567995751 1.0511717814 1.0462706594 1.4753670648 1.423397931 1.3752591058
          1.4911244808 1.5044444763 1.246252266 1.2046678821 1.5331326647 1.3809496808
          1.5887214709 1.3925582375 1.1275698881 1.0383093284 1.4386593769 1.5434252063
          1.6376242769 1.6818677682 1.6845011919 1.6723647902 1.6135091316 1.4332465335
          0.9085410873 1.3821282983 1.4127578191 1.3429045174 1.2706378963 1.0786106348
          1.4118223009 1.3249805321 1.3425095448 0.84977779116 0.85303332254 1.1281479841
          1.2656787629 0.85645778645 1.192978091 0.89930678214 1.4035234697 1.2219946488
          1.4707544243 1.3881769043 1.6768795811 1.5017418867 1.4819383711 1.3371413887
          1.3674153588 1.6385075206 1.4040464332 1.5616034217 1.3546227325 1.5764113741
          1.4977074284 1.5012084955 1.4471094309 1.0486108761 1.0529068403 1.3956673038
          0.85080870087 1.3484266235 1.4045972226 1.2364233824 1.6106686861 0.91350886707
          0.92363469423 0.92909302081 1.2266529018 1.4735028215 1.5087764341 1.6555900757
          1.4199490694 1.2947569907 1.2993821079 1.3042865576 1.3091179529 1.2403848366
          1.2587951599 1.3145346795 1.3197508373 1.3256402566 1.331757863 1.3621145624
          1.3685929998 1.2621225551 1.4213375918 1.1097784197 1.143368799 1.0832566074
          1.0891161946 1.3494471747 1.355778906 1.1469115159 1.1348784236 1.3893051935
          1.3968140213 1.2550269669 1.1891413611 1.1734823306 1.1622160427 1.1979690318
          1.3439967248 1.3210228727 1.2995102224 1.2791003343 1.0489992055 1.0473716641
          1.0505748258 1.0547886389 1.0678932865 1.1138866607 1.1069549718 1.0949243644
          1.0889500131 1.0786294732 1.3740373103 1.3674076868 1.3609467884 0.85675586827
          0.86208007001 0.86450988048 0.87031163365 0.87277176944 1.2044240542 1.2273167822
          0.9401683822 0.94635283236 1.049681458 1.0652186027 1.0824148082 1.3198393671
          1.3146667612 1.3098941883 1.3050241612 1.3006512449 1.2963104265 1.2915011754
          1.2852110464 1.2792904433 1.2725598985 1.2606111824 1.2592533811 1.2240746937
          1.0858204789 0.99964043213 0.95826919212 0.9644747002 0.9775412151 0.98469325262
          0.99907098444 1.0133604332 1.0242005928 1.2526183267 1.278921428 1.2789843333
          1.2843701584 1.2894692085 1.152426931 1.1780487496 1.3076518241 1.3391628447
          1.3708010475 1.1021929761 1.1207840915 1.1387938739 1.1588239148 1.1824032287
          0.8791532546 0.8818912813 0.8903259662 0.89546831221 1.336673831 1.3305993686
          1.207284292 1.2169132527 1.0738968463 1.0651128536 1.0613360346 1.0547189416
          1.4694617568 1.4584504693 1.5224195538 1.6498757415 1.4986822285 1.3852711134
          1.3978669646 1.5865805129 1.3582490688 1.4385751019 1.3994735508 1.6306674206
          1.3967050517 1.4971576511 0.91389132221 1.4907357959 1.4689757987 1.5577304348
          1.4715139114 1.378621039 1.1934139821 1.3905682721 1.0612988114 1.3470029911
          1.3384349061 1.2164717495 1.216004868 1.1321323752 1.5923496137 1.0925935064
          1.2534096073 1.2339057311 1.0732040758 1.3768950298 1.3257879469 1.6113705593
          1.4384078716 1.372204899 1.4815890587 1.3835670482 1.6757229581 1.6137652902
          1.4070332663 1.25428893 0.86640317863 0.86847787547 1.4056322226 1.4909261755
          1.4286016397 1.6588377085 1.4926648218 1.3743671643 1.5705894702 1.5470752323
          0.85986751635 1.4214769086 1.3522021509 1.3460012584 0.86241834066 0.92876678494
          0.94546968506 1.2449946278 1.4994130709 1.5292109049 1.4466557288 1.3017482799
          1.3107299958 1.2711536875 1.3210732617 1.330329146 1.3659538445 1.4150533329
          1.1191584974 1.3539898499 1.3598776409 1.1525634469 1.3922092625 1.2621521888
          1.2694654822 1.193272534 1.1733542441 1.1987897783 1.3517021853 1.3283166326
          1.3065893807 1.2915084423 1.0593300694 1.0653675357 1.0812492511 1.1118087671
          1.0943162881 1.3704999858 1.3643169883 0.87591009345 0.88578171196 1.2425804697
          0.9637811942 1.0982899326 1.278296866 1.315857363 1.3064588028 1.2980078962
          1.2908291842 1.284749353 1.2712557022 1.2648450657 1.2634016369 1.258279403
          1.1865444777 1.1002736753 1.072038487 0.9568038728 0.98377787931 1.0046454065
          1.0274454264 1.038978864 1.0549479411 1.2685884715 1.293994048 1.2778861564
          1.2866006343 1.2945400981 1.1531856698 1.1736034738 1.319881933 1.3488065872
          1.3783959486 1.4078597239 1.1203113595 1.1408537069 1.1585792022 1.1773655701
          1.2017470899 1.2182014638 0.89643270578 0.90649045433 1.3406310159 1.3346581952
          1.206928163 1.2259934141 1.2355127388 1.07970903 1.0683325535 1.4123242172
          1.4729069845 1.4645640216 1.4352455205 1.3259940942 1.4005828035 1.4869153898
          1.4328277094 1.53266175 1.4666586058 1.4453940978 1.421911062 1.4899077674
          1.5867902488 1.6060556266 1.3670412265 1.2616879855 0.92575879198 1.4229920736
          1.3277071658 1.4213356996 1.2462705162 1.4637169358 1.5113452963 1.0972947408
          1.3517055954 1.2252326173 1.1988133143 1.3813171478 1.3876910533 1.4001574555
          1.3799250025 1.4828942489 1.3854974545 1.3926860962 1.3558187878 0.9560030832
          0.94399748263 1.2438906638 1.2797571491 1.4538574361 1.462031898 1.6553651763
          1.3751704941 1.3613551735 1.4918543325 1.3943799395 1.5649293385 1.4890783677
          1.1900223266 1.5906998512 1.2662580612 1.2452906829 1.3790472098 1.6262259828
          1.3692171701 1.4017974431 1.2531361936 1.6389203022 1.4928141 1.3000648016
          1.5721039922 1.5529582583 0.87550114181 1.4444429341 1.3492676697 0.872463615
          0.9390126249 1.0258803884 1.5154871411 1.540241274 1.3086663261 1.3179167869
          1.3361614027 1.3441038905 1.4099167459 1.1120841479 1.3577554163 1.3634048206
          1.0834410219 1.2852558885 1.2935751009 1.2690720451 1.2258694517 1.2040941516
          1.1830283123 1.3561518315 1.0743087229 1.0743521642 1.1628748521 1.1418052445
          1.2345829964 1.372925507 0.88000644695 0.88619081434 1.1138485286 1.32235282
          1.3129517979 1.2838952598 1.3043274992 1.2967076967 1.2901734026 1.276990507
          1.2701007498 1.2643115037 1.2653566625 1.2423792128 1.1484923632 1.0776059212
          0.97474672123 0.99582299191 1.0184804943 1.0406118024 1.0623517338 1.0897203005
          1.2812326824 1.3071926015 1.2766946044 1.3009515772 1.1451522109 1.1716560016
          1.3307769384 1.3562782154 1.3836429326 1.4101607732 1.4369010536 1.1372138227
          1.1611526385 1.1788830076 1.1963793332 1.2185598191 0.89533609938 0.90804136391
          0.91789959936 1.340943198 1.331739697 1.206764737 1.2157737821 1.1216369996
          1.1044611963 1.0903368857 1.0799667269 1.4566076339 1.4531857688 1.4455960412
          1.4184111822 1.5451666493 1.4428017151 1.5023164881 1.3553209097 1.4891563986
          1.4166779209 1.4150224861 1.3717309537 1.4743470461 1.3635969037 0.98477695022
          1.4366735807 1.4420512623 1.4607989605 1.4811183324 1.4580491709 1.192562226
          1.3302906835 1.3334835324 1.2688874452 1.4281271008 1.4320255297 1.426780084
          1.4849313703 1.5185956335 0.93749366321 1.2340412041 1.1137923417 0.99114326188
          1.3282403876 1.3104376169 0.95005543744 1.2899426508 1.1857494352 1.480508184
          1.3875781289 1.1985666374 1.4353835793 1.4071902748 1.4055563448 1.4672351082
          1.5645613363 0.93889225507 1.4819221167 1.4840664252 1.4406477104 1.480544794
          1.1005987636 1.3774206876 1.3832393837 1.4188352342 1.4003448151 1.4665935654
          1.3690070938 1.3584162285 0.96593817283 1.243212272 1.2997244706 1.3897613726
          1.5002103288 1.583157915 1.2763512315 1.2557737722 1.3808933625 1.6018892604
          1.6480029319 1.3966040998 1.2523392129 1.2610894898 1.6380574843 1.6131151628
          1.4772764497 1.5691849507 1.5529405095 1.5360357699 0.88666596077 1.3527755412
          1.5239035763 1.3153286087 1.3245802809 1.3413776444 1.3488247733 1.3607990391
          1.3662314714 1.2925054174 1.2841800236 1.2348202953 1.213411442 1.3837493899
          1.3572740821 1.0874372697 1.0899872443 1.1715171892 1.3745810521 0.89050942769
          0.89768884168 1.3191144589 1.3027379976 1.2958132907 1.2894603796 1.2828534703
          1.2758483042 1.2691935702 1.2639600217 1.2651009572 1.2136630431 1.1193677445
          1.0476742633 1.0063663957 1.0785003551 1.1039331874 1.0303828608 1.0542477587
          1.129273475 1.3175163672 1.2762402458 1.3000019483 1.3072321507 1.1355911099
          1.1649592496 1.3401556662 1.3624569756 1.3869148145 1.4109634546 1.4345079627
          1.1535225748 1.1795281217 1.1937101581 1.2124232736 1.2343691177 1.2596793453
          0.90584959905 0.91733661445 0.92971765665 1.345556167 1.3371655709 1.2066539813
          1.215486337 1.224756649 1.1502766662 1.1306283767 1.1139764808 1.1006927958
          1.0915359414 1.5442251844 1.4578752281 1.3838194805 1.5198851214 1.4119179876
          1.3651768094 0.95256513752 1.2916285787 1.4539257014 1.4684592885 1.3335377474
          1.4473890698 1.616580039 1.4319870796 1.4614752078 1.2836419755 1.5794411141
          1.4718254245 1.437582323 1.5050110587 1.27613184 1.1334358912 1.3580412049
          1.2018853192 1.118034284 1.3601812765 1.3249497977 0.93311926664 1.0176343689
          1.3306318627 1.4519772152 1.042669151 0.98038400014 1.4509364507 1.4221969823
          1.4477297141 1.4214984522 1.4058477976 1.4612126996 1.417467676 1.4750749259
          1.4394223937 1.4786590969 1.4716027209 1.4783488358 1.4839781007 1.4771300089
          1.4846715822 1.3164473362 0.96427473127 1.4713402068 1.4897785798 1.1975534496
          1.3922329375 1.3966198449 1.4271748052 1.4295234757 1.4890244317 1.3736286567
          1.3793914811 1.4349860893 1.4094522948 1.35725702 0.97800158415 0.99598955471
          1.2428747001 1.3850890684 1.3320541337 1.306976512 1.2854049449 1.591723207
          1.3928049178 1.4013668502 1.2518785197 1.2606447901 1.2687177654 1.6198962113
          1.5618065274 1.5491155447 1.5347889315 1.355049589 1.5085193321 1.5270106518
          1.321939635 1.3386435015 1.3459554252 1.35254022 1.3631605176 1.3683554083
          1.2647735795 1.2435553036 1.2228327047 1.3830604379 1.1022543233 1.1071510406
          1.3762538003 1.3707006004 0.90321041402 0.9094432444 1.3086721708 1.3016096671
          1.2950506169 1.2886098 1.2817707401 1.2747653719 1.2682610922 1.2663272635
          1.2572311505 1.1730793319 1.0969690194 1.018482785 1.1192248225 1.0680446511
          1.0935988604 1.1442679901 1.3241752516 1.2992740133 1.3062331802 1.3136053329
          1.1567103157 1.1803726859 1.3474756677 1.367391793 1.3888004457 1.4103866955
          1.431276479 1.1695992827 1.1950592192 1.2195552156 1.2479006282 1.2711490132
          1.2972367993 0.918694255 0.92911167773 0.94031483589 1.3489611845 1.3417193186
          1.2064126768 1.2153412138 1.2245335045 1.2337808901 1.1804142178 1.1594254053
          1.1403989021 1.12450235 1.112312362 1.1045336635 1.4346513872 1.3970455198
          1.3615234499 1.5582454541 1.5932399357 1.3700353057 1.2428202586 1.2910714393
          0.97929085276 1.3797598991 1.4437661173 1.4415739901 1.451900868 1.4814104268
          1.3801307072 1.4248630123 1.4774712262 1.322036346 1.4156858691 1.3957774573
          1.4007407868 1.4734507721 1.3279492823 1.2986413462 1.5707641741 1.462273104
          1.3286530541 1.0821120721 1.4100589552 1.3379291652 1.2834791181 1.2319970093
          1.3886892175 1.4460331926 1.1628534931 1.3666633069 0.97401071167 1.3599592615
          1.2071808533 1.4454112909 1.1352058278 1.2110360414 1.137861117 0.96472776562
          1.5046138511 1.4918516384 1.4623327642 1.6030031129 1.3300702605 1.0554535097
          1.4726771551 1.4253359915 1.4777402041 1.4681037678 1.4337723719 1.4743479301
          1.477366118 1.4623174087 1.4779789794 1.3879992634 1.3753809014 1.2521011572
          0.99334303063 1.0093612358 1.0300146005 1.3567261592 1.3340553888 1.3131074468
          1.3813453978 1.404959101 1.2517205256 1.2604260636 1.2686256941 1.2761689134
          1.5987293092 1.5175393211 1.5418532592 1.5302323183 1.3565153322 1.4940050047
          1.5100761919 1.5254428941 1.3358055732 1.3430228709 1.3495269074 1.3551117292
          1.3648653742 1.2930975382 1.2725155659 1.4271299193 1.4042464803 1.1187526374
          1.1250791368 1.3724902275 0.93331363121 0.92347588034 1.314370092 1.3072963196
          1.3006374138 1.2941769754 1.2875263638 1.2804517841 1.2732619614 1.2666327982
          1.2663415802 1.2408240291 1.1501680116 1.0771199425 0.99570497563 1.1087909862
          1.1595326994 1.1838605583 1.3198960443 1.3055668177 1.312380194 1.1929035949
          1.3516923112 1.3710149429 1.389411272 1.4086731782 1.4272141526 1.2095216909
          1.2591244742 1.2810573266 1.2351768021 1.3043622986 0.93158794247 0.94312406755
          0.95376787227 1.3512170133 1.3451010556 1.2153236563 1.2244916697 1.2337534743
          1.1896451986 1.1691775868 1.1509647234 1.1361241835 1.1252559742 1.1190444822
          1.2200254537 1.4569418707 1.4368198641 1.440693532 1.4743222864 1.4110813554
          1.3182917334 1.4673357381 1.3577792764 1.240705572 1.3993536624 1.4035794533
          1.420662335 1.4725662975 1.4483131062 1.4295091118 1.4198045103 1.5012696176
          1.4717056437 1.1237159616 1.3767026079 1.3115104424 1.2981346607 1.4804131249
          0.96726653401 1.0095919909 1.3329884263 1.2518280684 1.1439606904 1.3532157348
          1.2469590153 1.2602030472 1.3631570357 1.3676209073 1.5715878558 1.3980943622
          1.2429933365 1.2908017145 0.99266568668 1.4417453356 1.4519534232 1.4776463962
          1.4270678807 1.4308450272 1.4623156552 1.3910574552 1.4519056243 1.3050272901
          1.325599633 1.5508533829 1.096315527 1.4001440456 1.3268343469 1.391521969
          1.4524406306 1.2056119875 0.98027864665 1.150710208 1.4662883555 1.4382579852
          1.5821346341 1.5839077327 1.3342276188 1.4901761642 1.4790178467 1.4627054173
          1.4703517086 1.4667133582 1.4532641788 1.4668056383 1.3825196465 1.0262443227
          1.0444414411 1.068934492 1.3560078079 1.3367119273 1.3718838465 1.3764342189