<?xml version="1.0"?>
<VTKFile type="UnstructuredGrid" version="0.1" byte_order="LittleEndian" header_type="UInt32" compressor="vtkZLibDataCompressor">
  <UnstructuredGrid>
    <Piece NumberOfPoints="5233" NumberOfCells="10216">
      <PointData>
        <DataArray type="Float64" Name="E(Ï)" format="ascii" RangeMin="0.80823451799" RangeMax="1.7643222582">
          1.5018039224 1.47791205 1.4594835872 1.4444054352 1.4315241031 1.4202072529
          1.4100055036 1.4006544911 1.3919561168 1.3837980192 1.3760550239 1.3686484875
          1.3615251646 1.3546446812 1.3479741161 1.3414977541 1.3351908474 1.3290462127
          1.3230545715 1.3172118579 1.3115185537 1.305967122 1.300534335 1.2951923071
          1.289899089 1.2846220862 1.2793419619 1.2740717201 1.2688440396 1.2636946787
          1.2585921041 1.253468745 1.248278419 1.2430118947 1.237708175 1.2323890805
          1.2270801753 1.2217587877 1.2164297382 1.2110686999 1.2056953556 1.2003020914
          1.1949300372 1.1896170802 1.1844730359 1.1796098897 1.175218096 1.1716613839
          1.1696013849 1.1604740553 1.1407086009 1.12218299 1.1010162494 1.0893964363
          1.0718864756 1.060732799 1.0534078745 1.045380697 1.0392578725 1.0354936757
          1.0334151139 1.0325318563 1.0328459271 1.0342212107 1.0362337662 1.0394169115
          1.0433156135 1.0482718648 1.0536519667 1.0598210355 1.0662807002 1.0730239385
          1.0801430543 1.0886337091 1.0983889828 1.1086814921 1.1194597092 1.1311222309
          1.1439234207 1.1578396272 1.1727972262 1.1887686718 1.2058495433 1.2241743983
          1.2439416388 1.2655951765 1.289502243 1.3160277925 1.3456298701 1.3788943104
          1.4163469784 1.4586557455 1.505981597 1.5581413485 1.6137698077 1.6695446768
          1.7193496796 1.757585748 1.7643222582 1.7517559576 1.7472665273 1.714410829
          1.6458349672 1.5702845397 1.4944802297 1.4242781247 1.362031678 1.3080479634
          1.2615311945 1.2215706086 1.1869827046 1.156870483 1.1303215972 1.106685415
          1.0857060806 1.0671382763 1.0503225936 1.0344519111 1.0190342706 1.0038622999
          0.98948712274 0.97653823217 0.96462331006 0.95314080971 0.94233207409 0.9347013152
          0.92654271863 0.91509315673 0.90769734129 0.90215121705 0.89430880504 0.88607711207
          0.87914532742 0.87265341042 0.86636534512 0.86028248206 0.85442775656 0.84884384156
          0.84353709629 0.83844897148 0.83366633102 0.82914222757 0.82502106014 0.82200053672
          0.8191113284 0.81665411387 0.81469261731 0.8131615953 0.81186666703 0.81063980272
          0.80932759887 0.80863029625 0.80823451799 0.80833483373 0.80872414001 1.0093337528
          1.0119165976 0.99882951074 1.001213748 1.0352136367 1.0677382904 1.11058468
          1.1452394488 1.1889390593 1.2422962091 1.262772996 1.2592978766 1.2614726416
          1.2646117201 1.2679675676 1.2715530364 1.2753551893 1.2793341669 1.2834659032
          1.2877444003 1.2921710049 1.2967468779 1.3014758399 1.3063650828 1.311433516
          1.3166948439 1.3221564243 1.3278234042 1.3336961382 1.3397685485 1.3460551768
          1.3525661571 1.3593307689 1.3663832956 1.3737685782 1.3815566051 1.3898614784
          1.3987873076 1.4085152316 1.4192841352 1.431496344 1.4456696543 1.4626543224
          1.4837623707 1.5251935035 1.2883707718 1.2882285218 1.2885823538 1.2882012264
          1.2881394145 1.2880688242 1.2886025896 1.287949671 1.2886025896 1.2878468373
          1.2879258112 1.2881579234 1.2880485348 1.2884624352 1.2884914952 1.28855474
          1.2886233774 1.2886224727 1.2886499147 1.2886299128 1.2886445089 1.2886384297
          1.2886810949 1.2886313277 1.2886444798 1.2886897225 1.2886025896 1.2887309655
          1.2886884883 1.288674738 1.2887176221 1.2887474871 1.2889604462 1.2888237183
          1.2889388103 1.2891035534 1.2891716064 1.2893879811 1.2892106021 1.2891222478
          1.2892295285 1.289289967 1.2886025896 1.2891846055 1.2889613175 1.2888449866
          1.2886164259 1.2886719722 1.2883311854 1.2882050464 1.2263806902 1.2155874245
          0.82226932873 1.1347951722 1.053453927 1.4897706548 1.4696098558 1.2575873138
          1.2261625391 1.6667122438 1.2472700906 0.92115190665 1.427197613 1.41646
          1.0581553336 1.2367166285 1.7243719635 1.4066961574 1.3976750031 1.7173773546
          1.2102672782 1.2781853214 1.2677497851 0.84149405602 1.2887104502 0.88301971204
          1.299268444 1.3553730817 1.3101175269 1.1912128934 1.3215049456 1.7388998758
          1.3461029034 1.3334900723 1.4093308537 1.0847561385 1.2939717246 1.3594488487
          1.3892358655 1.3737125278 1.0919564167 1.3157362915 1.2524701608 1.4529981699
          1.1943208391 1.0989162854 1.1755003296 1.1351431815 1.1694345542 1.153677956
          1.122651381 1.3437191497 1.0610080599 1.2670086362 1.068940184 1.0376340506
          1.0415656866 1.3155999553 1.0386101218 1.3397141422 1.1013435441 1.06984834
          1.1753072989 1.146720685 1.1841570665 1.0839742181 1.1996081731 1.3046370219
          1.3748391968 1.4391815309 1.5355596352 1.2637598109 1.3274240126 1.3526743428
          1.3812880093 1.6034274324 1.2834534817 1.0471436478 1.1795364209 1.2420027651
          1.262653739 1.1341704067 1.0572315656 1.1891252571 1.2208790959 1.2459053505
          1.5839798881 1.447649693 1.046244595 1.0767498952 1.514561428 1.0518038423
          1.1604525094 1.0375441041 1.0433662047 1.1141414299 1.2314331189 1.7126096485
          1.6787852783 0.81157291288 1.7319794408 1.1930083899 1.0932157769 1.1373901331
          0.98184442611 0.82514181418 1.4397754824 0.81228364093 0.81630473646 1.3714505588
          1.3573061398 1.3052141001 0.81483001014 0.81987889475 0.83210791814 1.3263079334
          1.3153637918 1.0407255709 1.3790425752 1.3506625185 1.3380719101 1.0091667665
          1.0745516546 0.8636869962 0.87634545217 0.9295603523 0.85206458937 0.81792928342
          0.82841085071 0.948377758 0.96954631894 1.001280449 0.91330206271 0.89771075259
          1.0593837387 0.81139007591 1.2606522651 1.2201154704 1.2710175199 1.264306047
          1.2868957725 1.2786328808 1.3101942864 1.295756069 1.3442581524 1.3207338801
          1.3642225845 1.2912497787 1.3004072808 1.2747301595 1.2826922655 1.2612961938
          1.2675422881 1.1686406941 1.261555334 1.0141721275 1.0883564847 0.81129669349
          0.98710894077 0.90601430465 0.89000575791 0.93995123612 0.92011619287 1.1140087911
          0.95790225411 1.3066713109 1.1636401377 1.0632477455 1.4712741137 1.3664486124
          1.2729376068 1.0388883073 1.1728108178 1.5367604469 1.2261380613 1.4103401782
          1.0246307811 1.0572459791 0.86989500759 0.99489947778 1.3871076439 1.3957282663
          0.85773823145 1.4050545499 1.4152960072 0.84664162996 0.83662444064 1.332090535
          1.4971479688 1.455349695 1.4739606156 1.2049433702 1.2901255521 1.4266970106
          0.81337069295 1.6329650321 1.4897918784 1.2081833338 1.1117607419 1.0405429688
          1.0734510229 1.6343940851 1.6813609366 1.0482379523 1.2311424819 1.3259276941
          1.5281163358 0.81649907635 1.2259577074 1.2621064192 1.4120048777 1.0457999776
          1.2930920412 1.2826702767 1.1850651601 1.6849048874 1.0711810425 1.4503044268
          1.364116277 1.1099384489 1.2363508448 1.2155457791 1.1094526649 1.2012705594
          1.0635153998 1.3144524374 1.2670896825 1.4164343905 1.2821567494 1.0726631617
          1.2863878078 1.008042441 1.1161214973 0.94877416164 1.2995942369 1.400797586
          0.85310627966 0.81849972752 1.3486306815 1.304277726 1.4103563908 1.3550961022
          1.3838358248 0.89847517427 0.85870634494 0.90632974896 1.0228676819 1.2207501624
          1.077840371 1.3674180304 0.97064538262 1.1330754488 1.3688060937 1.4207508006
          1.309131482 1.1010072154 1.5184718089 1.4469462453 1.4324025042 1.4691388852
          1.5797031851 1.5695619029 1.7137675922 1.7071160677 1.4150924745 1.53051658
          1.2369730262 1.4605039604 1.4329278794 0.8311750445 1.1807099309 1.4028556666
          1.3035793775 0.99661227173 1.4220195336 1.7116063894 1.0987147143 0.83455508247
          1.2878919214 0.87731874427 1.2983121804 1.3089446731 1.2185529946 1.3201105836
          1.331882776 1.3506694492 1.3531145183 1.3572918937 1.371174517 1.3942472453
          1.1317757562 1.2520228415 1.2571316186 1.445185529 1.1299548223 1.148347918
          1.1679209169 1.382883134 1.0703288113 1.0815966866 1.0473961758 1.3008383431
          1.337982267 1.3442413362 1.1203091652 1.1700142941 1.18500269 1.1998662208
          1.3785097898 1.3861689489 1.2415733461 1.2468305726 1.1562310198 1.1436563276
          1.1897118754 1.194731569 1.2779938633 1.2568161498 1.4880395378 1.0505222227
          1.0562374827 1.0927693213 1.0851476386 1.0648969267 1.0595453045 1.0463909701
          1.0455451263 1.0548050208 1.7008312873 1.6108872892 1.1568639119 1.392059963
          0.81731667045 0.81974633899 0.82163299026 0.82359727767 1.3761185621 1.3618109181
          1.3248403214 0.82578663374 0.82825691765 0.83868020379 1.3194011235 1.3423851413
          1.0919754895 1.1116699594 0.89112776814 0.88404641899 0.96006676577 0.98114869529
          0.99406305224 1.2709135516 1.2664370567 1.2449031134 1.2676073241 1.2822922337
          1.3141651739 1.2950499714 1.2906334618 1.2783237636 1.2745157163 1.2645825801
          1.2619282033 1.1942664563 1.152900156 1.0416101746 1.0025373321 0.81632970954
          0.81670479501 0.99794644269 1.0042627595 0.91414607012 0.92239157426 0.93141270058
          0.94021654812 1.3227783793 1.1834119332 1.2131513497 1.2722141989 1.2774177112
          1.1753636376 1.1772112715 1.5243257112 1.2459223761 1.0386611398 1.0556305943
          0.86466751002 0.87083682898 0.84276708599 0.84772134866 1.3363435309 1.3304925602
          1.2050911476 1.2103103025 1.3257307498 1.6496840629 1.0511864994 1.6908107748
          1.0735607025 1.0568356077 1.2663705031 1.1821613742 1.3300771336 1.4045728312
          1.3958460482 1.3589681544 1.5176348952 1.4139396015 1.4635541429 1.4997220394
          1.4493994486 1.5213288186 1.4215817287 1.6854146881 1.1959245673 1.3360280172
          1.4161102768 0.82221386793 1.4780474567 1.5606961433 1.2361544041 1.6307091264
          1.2411230768 1.4539021644 1.3024536414 1.5240717216 1.0548846208 1.2973221462
          1.2308993558 1.4259423087 1.4883913109 1.3799626931 0.82416973291 1.3462451636
          1.0659126475 1.424346868 0.82570552073 0.89269373093 0.86620735504 0.97063446099
          1.11053625 1.4820500036 1.6617280953 1.6116746404 1.3379283338 1.6582359488
          1.368269504 1.2123580837 1.700542512 1.1203977414 1.1245311659 1.3913450228
          1.4231604009 1.2858558018 1.2707536409 1.0951662616 1.3877240124 1.3524975572
          1.3079278948 1.3032262924 0.8723297806 0.88559807477 0.91607909338 1.0382969278
          1.2206990184 1.2259766648 1.0870417964 1.3792430229 0.98428242006 1.3726638124
          1.4363404121 1.469782812 1.5650914928 1.5967833991 1.7000018691 1.3626370386
          1.5142273517 1.4971642791 1.3753196866 1.4069549936 0.9437545118 1.1092708633
          0.84163585907 1.2870572385 1.2921869483 1.3076578015 1.3130239974 1.2484954475
          1.2299127124 1.3185372973 1.32424095 1.3548302902 1.3614563644 1.3984348572
          1.2567866449 1.2617070837 1.4369073079 1.1435297118 1.162403934 1.0805796262
          1.0970704262 1.3363766317 1.3421222701 1.3483801742 1.1416144361 1.1300165902
          1.1862472334 1.1904619346 1.3826423956 1.3902973955 1.2464758879 1.251603734
          1.180763874 1.1671163453 1.1544243445 1.1954970872 1.2002645207 1.3122344338
          1.2896831637 1.2683738661 1.0566476408 1.0605715902 1.0667499006 1.1112028494
          1.1026017766 1.0944131319 1.0799664144 1.073753061 1.0551207963 1.0543501877
          1.0681978988 1.1771711452 0.82722826584 0.82971825091 1.3656832204 0.83230735627
          0.83511481343 0.8381295671 0.84567272101 1.3231199837 1.1311925641 1.1531792345
          0.90006402111 0.90794263258 0.99600063565 1.0075223252 1.0223394038 1.2637380588
          1.3178571453 1.3127901269 1.2987026009 1.2942760105 1.2899251452 1.2818849777
          1.2779736364 1.2742710369 1.2677515069 1.2651626432 1.2645270465 1.2257906927
          1.1754408788 1.1416109347 1.0214382818 0.82242674647 0.82323917183 1.0049211205
          0.98607422673 1.0148986503 0.9242161739 0.93212336122 0.94204033677 0.95306862591
          0.96137188513 1.2035284551 1.2328544841 1.2714806691 1.2765661227 1.2818575161
          1.1768553025 1.1798423224 1.2652954229 1.2999822424 1.0546589789 1.071917059
          1.0906729148 0.87888813083 0.85045438839 0.85486562509 0.86028425616 1.3401929015
          1.3343132765 1.3286163091 1.2055494494 1.2104610149 1.2157707292 1.0636041432
          1.0597381352 1.6662845419 1.2074011094 1.4259608359 1.3835122792 1.1872469426
          1.661244632 1.4594390168 1.3343415398 1.3402169828 1.3710206659 1.4075137482
          0.83428836656 1.6392874969 1.3887769107 1.5507947267 1.3562966715 1.416810182
          1.5908081998 1.0475670641 1.5513012171 1.5022046288 1.5120996351 1.2706642358
          1.1320963584 1.4266906486 1.0833566579 1.2240246204 1.1206278229 1.0665277866
          1.3911126057 0.82919020544 1.3500667453 1.3440443863 1.270807013 0.99632003184
          0.9101520256 1.4105155576 1.1514884341 1.3017042688 1.446014666 1.3990608434
          1.4386581652 1.3793102304 1.4558578866 1.2359008871 1.5825021751 1.2412811041
          1.2459610831 1.4870610185 1.4193909313 1.5188031897 1.285420244 0.83094687121
          0.88787232965 1.6321844069 1.4280473127 1.0793368755 1.3069873996 0.88119703272
          0.895076498 0.90237661652 1.22590454 1.2313251753 1.3762492327 1.4687359888
          1.5104080065 1.6122354455 1.680519309 1.3981113676 1.3723317914 1.4021642604
          0.92665251031 1.2916053609 1.2967075925 1.3066179344 1.3118675685 1.2602884823
          1.2416853514 1.3171465457 1.3227653815 1.3284924062 1.3590198206 1.365583824
          1.261496901 1.2661692802 1.4291276886 1.1400439321 1.1572852389 1.0955860703
          1.1110733845 1.3462557333 1.3525834504 1.151858639 1.1416711722 1.1918644032
          1.3865449664 1.3941778593 1.2516128373 1.2569445135 1.1923618743 1.1793383395
          1.1657621644 1.1960152686 1.2013993787 1.346455589 1.3231432389 1.300983535
          1.2800210329 1.0645636271 1.0671746368 1.071086859 1.0779650713 1.1223707279
          1.1132359501 1.104836695 1.0970501416 1.0898838937 1.0642814104 1.0645567315
          1.0835500707 0.8362793386 1.3693661091 1.3627227091 0.83952197337 0.84280735253
          0.84632622412 0.84993970071 0.85412604832 1.1736295625 1.1975408508 0.91829253979
          0.92696815813 1.0118724157 1.0243361623 1.0373727999 1.0546837007 1.3215513739
          1.3165413024 1.3116202517 1.3024178907 1.2981545723 1.2938108495 1.2893763876
          1.2818838521 1.2777912838 1.2739589445 1.2679950528 1.2660782868 1.2680343515
          1.2545488198 1.2063453697 1.1620781734 1.1220081881 0.83088589621 0.82861769703
          1.0127386452 0.99496901246 0.96261454605 1.0019025246 0.93550793069 0.94409800171
          0.95342106726 0.96489619218 0.97612421893 0.98532179886 1.2235219814 1.2515490525
          1.2760023216 1.2813868658 1.2866165015 1.1771047841 1.1822172663 1.1841376303
          1.2828872971 1.3162671934 1.3510142056 1.0723512261 1.0899986121 1.1086888516
          1.1295575536 0.85853239275 0.8641013911 0.86882380114 0.87466651549 1.3268981212
          1.3381820095 1.3324259161 1.2058311657 1.2113404898 1.2158669012 1.2213483517
          1.0779528047 1.0731634696 1.0691142965 1.4838406355 1.4211222885 1.3761439156
          1.4881791672 1.5121937375 1.2486876678 1.218914572 1.5400885917 1.3794237234
          1.5938605968 1.4028535402 1.1442644728 1.026881024 1.4308440062 1.5377100184
          1.6349253412 1.6801984516 1.6835022309 1.6707947926 1.6176174356 1.433658657
          0.89748978133 1.382952241 1.4133291352 1.344106747 1.2727485072 1.0965916944
          1.4097206102 1.3251622551 1.3420492524 0.83731067362 0.84088277818 1.0513063317
          1.2698145954 0.84463003781 1.1910776171 0.88822222353 1.4015570376 1.2357505757
          1.4678704663 1.3864975781 1.6764301718 1.5015087537 1.481988152 1.3384050557
          1.3782238489 1.6414512981 1.3957026792 1.5676929314 1.3537810208 1.5715880237
          1.4956774429 1.5000714542 1.4562418762 1.0733135912 1.0766397515 1.3938418335
          0.90880534178 1.3477777735 1.4052333932 1.2389580719 1.6068744353 0.9024828447
          0.91263803904 0.91810517295 1.229235488 1.4662974551 1.5022664806 1.6572932277
          1.4296805755 1.2965343828 1.3010987882 1.3059422079 1.3107134333 1.2536766985
          1.2717125969 1.3160633386 1.3212166122 1.3270360339 1.3330807651 1.3631213362
          1.3695387018 1.2643461727 1.4218422727 1.1351156313 1.1530280425 1.1102903741
          1.121488488 1.3505801614 1.3568474479 1.1629104075 1.1512961471 1.3900674246
          1.3975134915 1.2573502542 1.2037212686 1.188460395 1.1776706142 1.1999444658
          1.3552794022 1.3327478694 1.3116057415 1.2915697582 1.074501447 1.0738425661
          1.0777681315 1.0812029033 1.0886225637 1.131204734 1.1247040058 1.1133236497
          1.1078777987 1.0982914712 1.3726704747 1.3662066897 1.3599204947 0.84516562481
          0.85057267847 0.85305105263 0.85890995659 0.86139397722 1.1940392467 1.216952829
          0.92921260455 0.93537962042 1.0379989155 1.0538746509 1.0712135206 1.3202373973
          1.3152784931 1.310733648 1.3060860182 1.3019443768 1.2978111404 1.2933288454
          1.2873930027 1.2818980438 1.2756259171 1.2708973171 1.2165197006 1.1250580754
          0.99019543776 0.97199962541 0.9473554789 0.95359073966 0.96669437646 0.97376363989
          0.98837957714 1.0024142532 1.0131532547 1.2424682189 1.2690528089 1.2809793793
          1.2862889683 1.2913206026 1.1741304316 1.1858807584 1.2980984055 1.3299572126
          1.3619955126 1.091017345 1.1097490679 1.127942078 1.1481574036 1.1720345502
          0.86785457578 0.87066057767 0.87918884598 0.88438066915 1.3364187497 1.3305722384
          1.2096455059 1.2194527055 1.0942023124 1.0862532796 1.0832738867 1.0776152581
          1.4696155234 1.4556966877 1.5288482977 1.6482812978 1.4981723531 1.3860662253
          1.3959841552 1.5831835558 1.3572913409 1.4389472566 1.400152822 1.6327802483
          1.406155151 1.5042703299 0.90306092618 1.4881362466 1.4627265199 1.5534940331
          1.4792649516 1.3794728578 1.192301759 1.3888213073 1.0853903854 1.3481547433
          1.3396779419 1.2190540483 1.2296383405 1.1488225023 1.5964048998 1.1178784323
          1.2659226723 1.2470066063 1.0620352155 1.3754393551 1.3259792867 1.6088958271
          1.4316257558 1.3731132542 1.4786371335 1.3819621756 1.6745704981 1.616884592
          1.4076530221 1.256644396 0.85443254895 0.85688724733 1.4036176862 1.4894269327
          1.4262535335 1.6593811983 1.4925968788 1.3843043638 1.575491836 1.5527683246
          0.8939729629 1.4303985881 1.3514359244 1.3454355957 0.8501531214 0.91797744213
          0.93469610999 1.247473943 1.4937631553 1.5242321648 1.4550051469 1.3034325065
          1.3123015837 1.2832854133 1.322518155 1.3316628012 1.3669191232 1.4156103475
          1.1411664877 1.3550696289 1.3609001293 1.1683652435 1.3929469659 1.2643918287
          1.2716030611 1.207556911 1.1883653115 1.1999127786 1.3621516245 1.3392690217
          1.3180277252 1.3032078366 1.0849800976 1.0905322237 1.1017417286 1.1296378199
          1.1134487087 1.3692009756 1.3631833625 0.86460707616 0.87459113492 1.2332452096
          0.95306495762 1.0875527247 1.2810906943 1.3164770147 1.3075330207 1.2995315708
          1.2928047957 1.2871037323 1.2745309953 1.2738962438 1.2603216796 1.1802511473
          1.0966662339 1.0277740353 0.97389100265 0.95658369324 0.9731314513 0.9943182812
          1.0169220572 1.0279534261 1.0437809863 1.2594934681 1.285216818 1.2799044377
          1.2884925139 1.2963213884 1.1699222501 1.1876194393 1.3114337102 1.3407124741
          1.3707023512 1.4006014094 1.1098471838 1.1307455945 1.1486140419 1.1675135858
          1.1922050542 1.2087041606 0.88534379123 0.89557414663 1.3402368388 1.3344958945
          1.2094299919 1.22861051 1.2380867693 1.1003291837 1.0906665875 1.4102083483
          1.4730209418 1.4647436848 1.4328070926 1.3364473531 1.3986417707 1.4847601811
          1.4332456129 1.5379728298 1.4737415989 1.4457143861 1.4224157815 1.4850540635
          1.5845683223 1.6084223114 1.3658147092 1.2639608399 0.91513516677 1.4207216568
          1.3290638555 1.4295024015 1.2377467691 1.4583523181 1.5172781291 1.119756716
          1.3528000214 1.2279213341 1.2000790645 1.3821450648 1.3884675415 1.4087815768
          1.3890051463 1.4800772412 1.3838366837 1.3908872926 1.3549243216 0.9454431814
          0.93627134279 1.2464265948 1.2912015563 1.4511749011 1.4592531382 1.6547973509
          1.3760496536 1.3602907782 1.4910275216 1.3951038283 1.5619531112 1.4955999161
          1.1935237795 1.5938853613 1.2780065217 1.2576731705 1.3775229361 1.6247474215
          1.3701477755 1.4024643009 1.2555436199 1.6399598105 1.4926248235 1.3110457483
          1.5760510335 1.5576059334 0.86347144385 1.4520754344 1.3485946051 0.88823090196
          0.92845262935 0.96309360276 1.5112046211 1.5365774844 1.3102588897 1.3193938269
          1.3374199247 1.3452769067 1.4105195088 1.1374410146 1.3587906399 1.3643875366
          1.1064988085 1.2871752867 1.2953717433 1.2712315168 1.2388583449 1.2177984533
          1.197552555 1.3658339274 1.0983104942 1.0993067141 1.1782492949 1.1582003663
          1.2372177101 1.3715457695 0.86831139503 0.87483389701 1.1037393257 1.3227291186
          1.3137692057 1.2864129596 1.3055951309 1.2984147305 1.2922846805 1.279963762
          1.2746394246 1.2787830327 1.2336379262 1.1486213131 1.0668382799 1.0057088528
          0.96425535634 0.98543813729 1.0085333261 1.0305217752 1.05151419 1.0791752832
          1.2731564649 1.2994757484 1.2787418758 1.3026448951 1.162999363 1.18648673
          1.3233921118 1.3492308064 1.3769792354 1.4039080391 1.4310742192 1.1275264826
          1.1520686599 1.1698812362 1.1874844206 1.209861864 0.88431307648 0.89711685944
          0.90709852378 1.3405540167 1.3317118874 1.2089755125 1.2184884303 1.13929669
          1.1235300621 1.1109922522 1.1023535958 1.4539036268 1.4534498883 1.4459157928
          1.4162072298 1.5426122625 1.4402634516 1.4986785 1.3563713385 1.488780581
          1.4172273692 1.4155909068 1.3726380109 1.4714996078 1.3624498635 0.97452014351
          1.4370634145 1.4423983046 1.4672735633 1.4785683834 1.4535019688 1.2065613213
          1.3399513502 1.3347624933 1.2710787423 1.4285804359 1.4296332556 1.4244604939
          1.4849033565 1.5235396783 0.92131704958 1.2367744711 1.1374927627 0.95394274597
          1.3283691888 1.3114174737 0.93974326173 1.2828083006 1.194136931 1.4763930878
          1.3858641805 1.2006803138 1.4329394621 1.4051471778 1.4035340717 1.4673873964
          1.5626289576 0.92851120669 1.4802118613 1.4829417408 1.4476253653 1.4865204472
          1.1230369561 1.378282161 1.3840555938 1.4263409929 1.408338691 1.4637938035
          1.3677095254 1.357427092 0.95562144394 1.2458275302 1.3101928708 1.3905283653
          1.5056782496 1.5856702046 1.2873746522 1.2674012577 1.3793124597 1.6004713087
          1.648266883 1.3973172382 1.254813433 1.2634143322 1.6378372267 1.6146558439
          1.4773381324 1.5723688395 1.5567490763 1.5404292623 0.88801332594 1.3519697602
          1.5207857151 1.3168313451 1.3259666108 1.3425692598 1.3499390923 1.3617992761
          1.3671843777 1.2943239764 1.2861279878 1.2471575963 1.2265330036 1.392065297
          1.3662637554 1.1110365905 1.1137006807 1.1864724665 1.3731442412 0.87878537835
          0.88629549718 1.3196579412 1.304145075 1.2976417759 1.2917117851 1.2855730972
          1.2794609909 1.279255649 1.2679069923 1.197537877 1.1191288418 1.0460300483
          0.99361127128 0.99625585382 1.0681201554 1.0939535977 1.020693276 1.0444757442
          1.119975846 1.3107868852 1.2783128935 1.3017085972 1.3088393456 1.1563125579
          1.1816551632 1.3337714925 1.3563900507 1.3812012491 1.4056313348 1.4295602503
          1.1446636927 1.1712383717 1.1855232457 1.2044054649 1.2266204586 1.252174052
          0.89480068822 0.90659139696 0.91915891843 1.3450023042 1.336924103 1.2091182144
          1.2182061724 1.2275914567 1.1663739113 1.1480852504 1.1329274038 1.121285359
          1.1137939614 1.5425967284 1.4581025119 1.3821675094 1.5240261818 1.409806932
          1.3639629841 0.94250776689 1.2934727814 1.4598475066 1.4657034267 1.3334211985
          1.4447925271 1.6160991776 1.432415157 1.4616733027 1.2856184999 1.5781889176
          1.4719367011 1.4351173851 1.509606354 1.2782370905 1.1551265814 1.3590608992
          1.215318395 1.1404272599 1.3591155709 1.3252054179 0.91859261244 1.0077812016
          1.331934325 1.4481818943 1.0332127154 0.94982653005 1.4482977804 1.4199409476
          1.4480323994 1.4220123312 1.4064878438 1.4584670991 1.4152766275 1.4723521053
          1.4397930589 1.4786658472 1.4770817819 1.476162481 1.4833507797 1.4757793435
          1.4845440779 1.3171073569 0.954314478 1.4679096035 1.4867418839 1.2013225331
          1.3904253987 1.3947432118 1.4276402777 1.4271718695 1.4940619788 1.3745242245
          1.3802438444 1.4413923801 1.4165658012 1.3655823069 0.96797089774 0.98599066475
          1.2456072578 1.3858986834 1.3410457398 1.3166359353 1.2956484004 1.5935390257
          1.3935542821 1.4020450113 1.2544438027 1.263040428 1.2709579655 1.6205229394
          1.5643887679 1.5522535813 1.5384466482 1.3541477179 1.5059124303 1.524871538
          1.3233502005 1.339854035 1.3470891101 1.3536094714 1.3641374264 1.3692910461
          1.2756834696 1.2552187942 1.2353248249 1.3907535664 1.1250429306 1.1296393905
          1.3747620558 1.3693393972 0.89736623492 0.89804157238 1.309739253 1.3030767924
          1.2969239982 1.290917619 1.2846066035 1.2789122261 1.2818806396 1.2512064628
          1.1712493849 1.094335321 1.0302633071 0.98338243522 1.1099596222 1.0585286761
          1.083791485 1.1358105177 1.3183289285 1.300996043 1.3078525721 1.3151242636
          1.1744171002 1.1926486714 1.3420099818 1.3622287836 1.3839612757 1.40589543
          1.4271303564 1.1616486801 1.1875086341 1.2122661905 1.2410462006 1.2645734637
          1.2909938862 0.90765353802 0.91836027606 0.92995490247 1.348264373 1.3412822547
          1.2097994971 1.2183728592 1.2275278206 1.2366773034 1.1949018975 1.1751548637
          1.1575590478 1.143211944 1.1326466787 1.1263747059 1.4350613055 1.3977642724
          1.3603804343 1.5571744948 1.5927152797 1.3709645089 1.2457221742 1.2929444742
          0.96971056362 1.3781880807 1.4441016042 1.4390505893 1.4521716091 1.4811228913
          1.3872381291 1.4225769752 1.4765741073 1.3223728489 1.4135206816 1.3939029231
          1.3987906921 1.4709726873 1.3292748624 1.300384017 1.572765058 1.4673071634
          1.3236247573 1.0728942478 1.4106679783 1.3375868674 1.2854895721 1.2438342279
          1.389473103 1.4514758073 1.179825998 1.3653817477 0.94874883906 1.3609629665
          1.2111077163 1.4423012791 1.1267947393 1.2238691105 1.1587868265 0.95487647583
          1.5085069731 1.4961215151 1.4596070269 1.6032622664 1.3300467111 1.0461466622
          1.4727624725 1.4258214346 1.482388089 1.4654838846 1.431362904 1.4725662235
          1.4772862223 1.4595190586 1.4755063966 1.3862605225 1.3762712702 1.263077374
          0.98375461655 0.99965412187 1.0204024932 1.3644412668 1.3423868387 1.3220181544
          1.3821947336 1.4056139555 1.254410541 1.2629158632 1.2709338471 1.2783202237
          1.5998011381 1.5210356004 1.5444539222 1.5332998546 1.3555263457 1.4918840388
          1.508338301 1.5241289813 1.3370378435 1.3441776934 1.3506184249 1.3561539207
          1.3658322954 1.3026085442 1.2827253103 1.433070442 1.4107668939 1.1404100213
          1.1465930483 1.3710545042 0.92196758976 0.91325737346 1.3150829313 1.3083833762
          1.3021011951 1.2960397019 1.2898531112 1.2833679006 1.2771319808 1.2804660017
          1.2329601809 1.1463900811 1.0763665083 1.0192422567 0.97554720484 1.0996337351
          1.1519119813 1.1767397999 1.3213253823 1.3071986577 1.3139123387 1.2007630524
          1.3470401876 1.3666822965 1.3853731686 1.4049495327 1.4237944048 1.2028047354
          1.2531176233 1.2753600729 1.228800225 1.2989771294 0.92053038991 0.93243363304
          0.94344668077 1.3504009731 1.3444947564 1.2190656435 1.2278202711 1.2368657695
          1.2036132311 1.1844599016 1.167718968 1.1544294923 1.1450800366 1.1401398326
          1.2322318434 1.4542571008 1.4372151717 1.4410560871 1.4740693474 1.4089769648
          1.3197377545 1.4674767573 1.3567040182 1.2518766524 1.3974200739 1.4015836175
          1.4211890038 1.4726088944 1.4486116938 1.4299611592 1.4175856603 1.5046004198
          1.4695391973 1.1152917192 1.3832866016 1.3130555613 1.2999034067 1.4787548773
          0.94750716609 1.0004130556 1.334244585 1.2546861493 1.1640709555 1.3492941703
          1.2413690421 1.2704925427 1.3619361733 1.3662823156 1.5710903604 1.4041376099
          1.2461241081 1.2927086893 0.98327305744 1.4392296144 1.4522223053 1.4771405352
          1.4247596716 1.4284832407 1.4625021989 1.3892597904 1.4492669913 1.3066756898
          1.32694687 1.5529614683 1.0874590519 1.4008424465 1.3268680749 1.3922912119
          1.4570929115 1.2115070837 0.97052753907 1.1431455837 1.4705931154 1.4357929874
          1.5822314512 1.5846406396 1.333952412 1.4938336356 1.482993576 1.4600427197
          1.4690746208 1.4643526923 1.4510434014 1.4648586888 1.3808796488 1.016979146
          1.0350770451 1.0597160633 1.363146059 1.3443802241 1.3728082846 1.3773278253